ITEM: TIMESTEP
1
ITEM: NUMBER OF ATOMS
8192
ITEM: BOX BOUNDS pp pp pp
0.0000000000000000e+00 6.111876913535127
0.0000000000000000e+00 5.745254680570726
0.0000000000000000e+00 7.060115027056403
ITEM: ATOMS id type x y z
1 2 2.454214787736448 5.01010915414328 3.6788236449493095
2 2 5.385867340704026 4.5639574131184215 5.434751753526325
3 2 2.438408827590571 2.387623354269626 6.413689278300007
4 2 2.126852169869779 1.312546484278755 4.8022417676200115
5 2 5.368703480201974 4.158868578864296 6.121251857594159
6 2 5.583088788434884 4.738040238780057 0.7012740599430171
7 2 0.244041852011771 4.743797736290239 5.553486560670269
8 2 0.159091605729463 3.743296753860498 4.905224930632323
9 2 4.713815296425896 2.461438817631299 2.0905690723527823
10 2 3.999451077049351 2.4411246283029215 6.363609913164273
11 2 3.601857852761311 0.392107306849093 1.6686965896963337
12 2 5.324327296562175 5.694002089527256 6.473273945928966
13 2 2.706241093842528 1.9369633840622669 0.5213794207569529
14 2 2.8642463792870507 2.7141169159083436 4.9624196936344145
15 2 4.310844786727402 2.472573600551934 1.1701298949231211
16 2 1.7248593484277321 2.697441899534514 3.1041058982018037
17 2 1.4285111746961 1.157854475703299 5.569998629001356
18 2 2.8874393173705193 4.558634443722216 2.188229265968889
19 2 1.7767311420336167 2.470944120124524 5.7907389109011635
20 2 2.7781011806913094 0.04839556869407699 1.80220535271546
21 2 2.8762502184356378 4.097491482765186 5.09104001537131
22 2 3.012800678252596 5.280820169150328 0.382547688341621
23 2 4.967036554845408 1.0279305696244747 1.1071776344108482
24 2 1.4223191490719418 4.346095879973706 0.445825844939376
25 2 3.4584092591349838 0.053935802147271 6.456001453398421
26 2 0.31823752747317297 3.547161626414582 5.84874841411696
27 2 0.6826436670562961 1.540782376144649 5.18354018763395
28 2 4.9110367441567515 0.547179527524278 2.595979584921118
29 2 5.136611151324543 5.531488574900233 0.5444094107976809
30 2 3.9578993261503967 4.509206870757446 1.21450607856292
31 2 4.443321545475834 0.098909461943787 6.2400952967665955
32 2 3.7676846442574026 3.732433551011099 3.6330895609533354
33 2 0.265496677639336 3.1916089971537196 3.9326423795255407
34 2 1.1284695119956716 3.313711397180976 2.917367441220617
35 2 5.781776768550408 3.6850699865877146 5.4316014247
36 2 5.321991707949554 3.1634189857595274 6.1201655373092185
37 2 3.5225021559464444 3.267814365142261 1.831970528522816
38 2 1.071166116965087 2.168675500839969 1.651315465137294
39 2 4.1050957247597655 5.024285633861747 0.23084306054974998
40 2 4.735378754081954 5.29418190865509 2.556220262492314
41 2 2.8171000789206553 0.9366796656895149 2.725088750786237
42 2 0.23377612531908798 4.138174177436189 5.6610865848935745
43 2 0.11379204984746498 2.0155043406634294 2.423689187729634
44 2 2.0493975335535572 5.629094452502093 6.807643329633498
45 2 0.19564628331769401 1.872435959136831 2.0083346267828253
46 2 4.040568299834331 0.132096546648704 3.8392188350207013
47 2 0.541856558128072 0.9754069838476259 1.810841598980733
48 2 2.98792394372747 1.6516956772370228 5.9086046618171535
49 2 2.464100302329402 4.293463662168362 4.282491827290468
50 2 4.8775780793806005 1.3643639618703929 3.9898914585418783
51 2 3.403061240617291 1.6142176274065931 2.153575648879303
52 2 4.743743420275991 4.329312231571382 5.278104368437977
53 2 5.82376304756334 2.266335694456075 0.293795321062023
54 2 4.260602473548927 1.3231924230711671 1.9138247619930449
55 2 3.107636439127858 1.3963017782476288 3.5571014570217834
56 2 1.011635765350375 2.8500155835543373 4.694641743396704
57 2 3.678226168792593 1.013808405920255 3.6959875054513622
58 2 0.455874307575071 3.8473119211435036 6.718565066268418
59 2 2.9215497743176364 3.2438066868450877 0.22334745058366395
60 2 3.8498104577988665 2.459917969232383 2.1684039207687342
61 2 1.430575183237486 4.917446033837898 1.2832158365853752
62 2 2.720526205589489 4.816635511395465 6.887107658476859
63 2 3.009541717397776 2.4128803008944817 5.739518909466243
64 2 5.758094986338716 0.431323469135427 2.3849075535572757
65 2 0.192115742391639 1.8426707833294753 5.519864947851374
66 2 5.848911362159701 3.0323544433815157 5.841361436179368
67 2 1.571851136293933 5.078438700066005 1.0084311205098022
68 2 1.1553016230336899 0.34816565132327 3.3791078783343647
69 2 3.556884192964795 0.45250671469175696 3.569322560227358
70 2 2.4379199834623484 1.555827912091068 6.040864156508599
71 2 1.1522599262358582 3.046965451213959 1.561531093587003
72 2 1.5984116672607163 2.5519292973668013 3.386277592214968
73 2 5.4981928581668225 4.676445878623959 5.671841155714481
74 2 2.55556847032135 3.4206596292333193 5.890571745087151
75 2 4.417141226608781 0.44642332109609295 4.8257606017889625
76 2 2.4258075122852674 1.425034949784292 1.975853650263119
77 2 4.302425804519117 5.120099082993455 0.43686370258862106
78 2 0.571621733935428 5.259908503665232 1.5997152516026438
79 2 2.158192510090298 3.0935685914378848 1.5267688444689231
80 2 0.9403188386440641 2.3088108175972293 0.34631890683887195
81 2 0.16550089541060897 5.180607122864612 1.4166159675760068
82 2 5.74516777494793 1.4257953739837503 3.6824085018896118
83 2 1.9803075634313732 4.951502174770766 3.380900306804515
84 2 1.358878044431446 3.0325717074385037 5.7004656952226505
85 2 0.723163413684558 3.996246432208778 4.319643981035416
86 2 4.218887774607231 1.053350464292071 6.7378472513261025
87 2 5.383205856005924 5.032704616070031 4.459399085692947
88 2 5.6959574660401495 1.468867973281621 1.666523949126454
89 2 0.5789000798445261 1.645395019584371 2.417823058190958
90 2 5.138675159865929 4.436966571808936 4.584597498532282
91 2 4.515616160438592 1.88965413565313 3.4681318256851967
92 2 2.975322628422166 3.4332066285243754 2.3611714553313368
93 2 4.111342066398171 3.863878305488839 6.303264821335857
94 2 1.60829718185367 4.81799341175164 6.225918817048127
95 2 5.940107950080414 3.9038548919746323 3.6117433673542654
96 2 2.3023472119018358 0.133888975118855 4.509206870757445
97 2 4.968448771215832 3.641943071275597 3.498222897578035
98 2 5.135850727125085 0.7508102649362809 2.651436235467305
99 2 5.752011592743052 4.845314366917882 0.30454989188292897
100 2 5.737020372810881 5.100165105764806 6.633669136000356
101 2 1.1084269027385292 5.382228167749476 3.8516572022832642
102 2 3.8202082300342504 2.9248087351724563 0.7358733610183561
103 2 4.809194217443626 0.39330225916252703 4.066368406601655
104 2 1.8795513570031879 1.479894124173762 1.6128597270504181
105 2 0.88317839165622 1.395487038033924 4.539678154750013
106 2 0.864113470655523 3.6628547367606923 3.0988372448198445
107 2 1.5141132131493722 3.9510011923410278 6.800147719667412
108 2 3.0310508590395875 0.045625451967479996 1.2407950294584682
109 2 0.03421908897561 5.48770986741715 1.135802173919017
110 2 0.7825851332707761 4.316547968223337 0.27054806696430694
111 2 1.9509769157379928 1.7548961043063227 1.6690768017960629
112 2 0.7795434364729439 4.0996641233350655 2.141789073787704
113 2 4.80370830000468 4.182333097019 2.819598615576017
114 2 2.960494356532735 1.1129351319210299 3.7627418869609253
115 2 5.996325024826059 4.601218198891865 1.755982424591263
116 2 3.8458997047730827 5.387496821131436 2.2845315592288196
117 2 4.997127626738246 1.6920524758225441 0.45017112607913595
118 2 3.5672585516859714 3.6853415666589497 1.2310181468940078
119 2 5.555876465297136 0.682100506913826 0.9869762948822369
120 2 4.056645840051442 5.591073242529193 2.404624266728937
121 2 4.537342566137392 0.7165911759606709 4.776387344838439
122 2 0.6041570264693811 5.119012762708515 2.305986384856385
123 2 4.781655998220398 1.022716232256763 1.701992306429745
124 2 4.543643223790043 0.6164324456892027 2.043042559886658
125 2 0.8493395147803391 2.7193312532760547 1.575435993234235
126 2 5.524318861019629 2.108710621111281 2.786248582828359
127 2 4.010151331856011 2.0527108104226235 2.3165236916203025
128 2 0.544735306883163 4.763405817433406 3.2811217886327766
129 2 1.583040235228815 2.5837041657012962 6.932244266316117
130 2 3.7551376449663456 1.2292800344381039 5.3875511371456835
131 2 1.2959257839191731 2.9108495195109767 1.975201858092155
132 2 0.09657387333116599 0.003476224911807999 2.404787214771678
133 2 4.305902029430925 2.7707142027537173 4.30019884793499
134 2 5.009837574072043 4.843033094319509 0.089458475464809
135 2 4.156587306265921 3.9512184563980144 7.032348680573337
136 2 0.47282090402013505 3.722222140332663 0.9124004073211058
137 2 1.6113388786515022 4.86416202386159 4.3573392949228325
138 2 3.3624328619605355 1.3240071632848718 2.1460257228989694
139 2 0.747008143938991 2.5942957884794615 2.3351540845070238
140 2 5.763417955734923 4.2863482643020046 3.019644496047718
141 2 5.815995857526018 1.901875238858705 2.706621305942257
142 2 0.8586818692308231 1.0180450550315212 1.3142845967346588
143 2 2.466218626885035 3.182103694660495 2.1112634737808897
144 2 3.9754433987521764 3.844052960288684 5.9839409735777425
145 2 5.109072932101314 3.791746638568823 6.873039810786886
146 2 4.45646602092361 1.295491255805197 3.793539067038974
147 2 2.7094457386831015 1.568211963339384 6.447636787204382
148 2 3.2414167822182187 3.8374807225647976 0.653693231462645
149 2 2.5173299962914624 0.5135035986911379 6.386911483276236
150 2 5.062578423905882 4.754172095011416 2.2284774325259162
151 2 2.3180445400192187 1.9095881128817789 2.4822418510879003
152 2 5.856406972125787 1.8921526723084923 1.761142445944728
153 2 5.4913490403717 0.831306598050335 1.9117064374374118
154 2 5.13215723815629 2.433085858194365 6.849032132489712
155 2 4.880239564078702 3.1513065145824464 3.479972716791043
156 2 2.739210914490457 1.683036017457542 4.939335387579438
157 2 0.9286408955809591 2.0269107036552985 6.429712502502871
158 2 5.336059555639526 4.275973905580829 5.430786684486295
159 2 3.109157287526774 2.315328739306869 1.143189151856609
160 2 4.001352137547997 5.598786116552265 6.817963372340428
161 2 5.097340673023961 2.9214411422891424 4.860196954821559
162 2 1.485434357626956 5.369463904401432 4.446526190316408
163 2 2.4999488717324225 2.254277539293241 3.0846064490871297
164 2 3.4842093659023092 1.9285444018539821 0.7614562037286929
165 2 5.001309959835266 2.696409895263821 4.727937460130116
166 2 4.0200368464489635 4.626257881459731 0.817944858545573
167 2 4.045076529016832 4.7379859227658105 6.615310323184872
168 2 0.192984798619591 3.780285959562706 3.219147216376949
169 2 4.32518421448861 0.43034578087898107 0.3510444000783609
170 2 2.471867492366723 0.641689392314058 5.645660836847427
171 2 3.291170251268471 1.1700755789088741 3.6568799751935224
172 2 1.5697328117383 3.1265384120858135 5.888018892417541
173 2 5.652015810514326 0.982793961785218 5.980736328737169
174 2 0.417038357388466 4.020254110505952 1.846418588312518
175 2 2.459429125104159 5.0947878203543535 5.365172939275919
176 2 4.316602284237584 0.740979066357574 1.859671695788786
177 2 3.959854702663288 1.56918965159583 1.9294677740961812
178 2 3.4659048691010694 1.5843438195707427 3.0666821643856195
179 2 5.127974905059269 3.0635861515735408 0.065124901082153
180 2 2.0202298339029183 0.8692734920089881 2.4641003023294017
181 2 0.31639078298877493 4.884421897175722 5.806110342933065
182 2 5.135090302925627 0.6234935275413128 4.834233900011495
183 2 0.842169800899735 5.290434103672047 2.973421567923521
184 2 1.9296850381531692 0.199774300400466 5.005872505032014
185 2 0.5359361125751491 4.181409724776801 6.298810908167601
186 2 5.305968483746688 2.8315481387103567 5.433991329326868
187 2 3.3981727993350606 5.624749171362331 2.799610322333121
188 2 2.5684956817121365 3.966481256401422 3.731238598697665
189 2 2.1300568147103522 0.7836171375414689 4.156750254308663
190 2 2.599455809832926 2.638726288133507 1.0548713126909872
191 2 0.832773130435004 0.409379799379639 6.754467951685685
192 2 2.670229576396767 3.8694728549562796 2.774950851864983
193 2 3.4475460562855837 3.3625414939890286 1.0092458607235069
194 2 5.892472805585795 5.383314488034418 0.24882166126550698
195 2 3.282534005003198 4.657435273637509 1.32585390776927
196 2 1.875694919991651 1.6721184985938948 0.8308177539221119
197 2 5.407539430388578 3.633849985152794 0.43898202714425394
198 2 4.136599013023026 2.8289409700265007 3.50609871964385
199 2 2.9295885444261915 1.6709778622947082 2.940777643361074
200 2 3.05907792239104 5.548163591274062 4.036983442894027
201 2 1.3652873341125917 2.2969156104771358 0.9573740671176221
202 2 0.498186482673484 4.1530567653398665 5.838645635467017
203 2 0.32470113316856597 1.9055687278275009 6.173015019171551
204 2 1.195060945462494 4.684050120618539 6.378546817082197
205 2 0.225194195068062 0.9890946194378701 6.196588169354748
206 2 6.013434569313865 1.626493046626415 1.566202270812245
207 2 1.090176721951537 0.423067434969883 6.903945622893429
208 2 5.5412111414504475 0.18695572103817398 3.8887007239997184
209 2 1.5660393227695037 4.706265370445562 6.788143880518824
210 2 3.375088493280086 1.7022095704867328 6.701618469823354
211 2 3.652263113982527 2.9321957131100485 4.326216218759303
212 2 2.5672464133844555 1.4245461056560689 1.705685795398541
213 2 5.467612942145761 2.2481398296833297 7.015673664199508
214 2 5.359306809737244 0.28450728262578595 6.740780316095441
215 2 1.5714709241942042 2.1376067406906847 6.040212364337635
216 2 1.329058552609843 4.502254420933829 6.217717098896832
217 2 1.561911305686732 3.4008342840331642 6.72014023068158
218 2 4.082608894861507 1.2054353041836707 4.437726996008394
219 2 2.6042356190866616 4.552170838026822 6.916818518269968
220 2 5.767600288831941 3.0538635850233278 2.2466189812844144
221 2 5.929027483174027 2.971031663296653 2.480177842546514
222 2 4.436043199566737 3.361726753775324 5.995890496712082
223 2 2.043694352057622 3.368190359470717 6.2090808526315575
224 2 5.131288181928339 3.3240857559021526 0.18820498936585495
225 2 6.098819343710148 2.7594164717903404 4.451034419498909
226 2 5.836147098811657 5.175610049553888 2.242816860287124
227 2 0.07278345909098001 0.32823167409462095 6.655830069813133
228 2 3.5066961958005676 1.900463022488283 2.4961467507351314
229 2 3.817438113307654 3.122844923117018 6.617374331726257
230 2 3.6475376207430386 0.219708277629115 3.897662866350473
231 2 1.399506423088202 3.0627170953455884 3.83362428555326
232 2 1.485271409584215 4.9459076253033265 0.5242581695120441
233 2 5.7214859927362385 4.354895074281719 0.422469958813166
234 2 4.373851363253922 0.367936680509178 2.651870763581281
235 2 5.355830584825435 0.426706607924432 3.0926452191956857
236 2 4.560100976106885 4.414588373939171 0.422469958813166
237 2 4.665528359760312 0.308569276937207 0.941731055014486
238 2 5.482549846063686 1.3139043846349303 2.193552235365095
239 2 5.7357711044832 3.4865449545149296 1.474408206734815
240 2 3.306052839172149 3.8489957175851606 6.115440044069729
241 2 3.3344057986090827 1.679070948417511 2.718407881033856
242 2 2.6650152390290547 0.8687303318665179 1.644580279370666
243 2 3.051093468296731 4.764600769746841 0.614422753162064
244 2 0.5752609068899771 1.053459096320565 6.789881992974729
245 2 5.261429352064149 1.938918760575159 4.626529461530966
246 2 3.6302651282124923 5.10407585879059 2.9206264020754373
247 2 5.38070731935056 0.15643012103135995 4.5782425248653835
248 2 3.688491895485276 1.810244122824016 0.556141669875033
249 2 1.065299987426411 2.80922425685484 4.402421586747844
250 2 3.025130413486665 4.887029065859578 1.612533830964936
251 2 3.1124162483815945 5.292498112213433 1.6251894622844871
252 2 3.0695065971264635 4.257180564651366 4.11932652049248
253 2 0.30091071892838 5.6251293834620615 5.835278042583704
254 2 1.266323556154558 1.225152017355332 0.6156720214897449
255 2 5.312595037484823 3.4633520164314606 5.9375550974108044
256 2 5.876069369283201 5.2735418232412306 1.9380497043472071
257 2 0.45424482714766096 4.363585636561239 2.302673107987318
258 2 1.406893401025794 1.8162188843911862 5.4294287841301205
259 2 1.7384383519894822 1.566256586826492 4.144474835088841
260 2 0.12003839148587002 2.4196698026753563 4.683452644461821
261 2 2.138204216847402 0.784268929712433 0.285919498996208
262 2 3.851276990183534 1.1542696187629968 1.8161645683769387
263 2 0.104884223510957 1.9347907434923868 3.629450387998787
264 2 3.9160216791659592 1.5382838394892868 5.542569041806621
265 2 4.058655532578581 5.616221557125553 3.744274442116945
266 2 2.088776643882632 5.69937937493771 4.871983529913159
267 2 2.5665946212134907 4.099283911235337 5.190981481585789
268 2 5.512966814042007 2.887385001356273 4.0001028692203136
269 2 3.260481703218916 4.318883556835957 4.874807962654004
270 2 5.735010680283741 3.4194646769198846 0.698015099088197
271 2 5.355830584825434 5.497595382010106 2.7934182967089627
272 2 3.5843137801595297 3.7908232663266244 6.867662525376433
273 2 5.698999162837981 4.975292589010954 1.0862659689257528
274 2 0.541802242113825 3.935358180237891 0.44636900508184596
275 2 0.30074777088563903 4.935478950567902 0.323940708969108
276 2 1.6185629085463529 3.9011934072765277 0.178916950929618
277 2 4.426918109173241 2.549430760711439 2.781034245460647
278 2 3.002100423445937 2.9243198910442327 0.8871434606962508
279 2 2.208326191240279 0.8927380101636918 3.437769173721124
280 2 5.324490244604917 4.934012418183233 1.2336253155778636
281 2 5.162248310049127 0.040411114599768 5.46544030157588
282 2 3.9335657517677394 4.353591489939791 5.173871937097984
283 2 2.936378046207067 0.857921445031365 4.312474267154813
284 2 3.48219967337517 3.46264590824625 5.701443383479095
285 2 5.048945104329885 1.03580639169029 0.699861843572595
286 2 4.0519203468119525 5.066760757002902 2.0052929299849933
287 2 0.3103073893931111 1.968629620368268 6.455295345213209
288 2 4.744884056575178 1.9937779349646285 2.236135990534743
289 2 5.294073276626596 4.45537970063867 2.8129720618378826
290 2 0.225628723182038 1.016035362504382 1.7080757000254092
291 2 1.0324931148212229 5.147202774102708 4.860414218878548
292 2 0.09787745767309398 0.127425369423462 5.151439423213974
293 2 3.319305946648417 1.395595670062418 0.19999156445745397
294 2 3.66470148124509 2.2706266595815885 4.445711450102704
295 2 3.790606002269637 4.2634812223040175 6.652136580844337
296 2 2.3995728774039664 2.976843476821082 5.279570900822646
297 2 3.1547827394942543 0.008147402137050001 2.4236348717153873
298 2 4.740049931307196 5.689928388458732 3.073851878266224
299 2 5.8056758148190895 0.974863823705156 0.20743285840929301
300 2 0.3260047175104939 5.493630312970074 2.5851706980859652
301 2 1.4787534878745747 2.085028838899589 3.486110426400954
302 2 4.421160611663059 0.8890445211948959 0.277174620702441
303 2 0.44055719155741696 4.105964780987718 1.551102418851579
304 2 4.889962130628915 1.7222521797438761 6.564253269792691
305 2 1.917626882990335 0.10477559148246299 1.2502460159374458
306 2 1.8223022779868503 3.75106394389782 6.722475819294202
307 2 5.931743283886376 2.3680695891407058 5.050140056643318
308 2 2.3797475322038113 0.90653427778243 5.090714119285828
309 2 2.942461439802731 1.391250388922658 1.7477807064399657
310 2 3.722873932503627 4.852918608912462 2.2302155449818204
311 2 0.627838808681073 3.4809504050474893 1.177353924817972
312 2 0.9466738123109629 1.5778258978611033 2.861802158645936
313 2 0.25620863920309905 4.324423790289152 3.9968439083654945
314 2 1.64523207154163 3.697562669864525 2.593915576379732
315 2 0.15746212530205297 3.2310424234970423 2.4517705670953327
316 2 2.8148188063222808 2.870981565053679 1.9038849313858437
317 2 1.724479136328003 0.279836105400544 1.129990360394588
318 2 5.282992809720209 1.715897206076977 6.242267937336475
319 2 1.7964478552052778 1.017175998803569 2.7044486653723774
320 2 5.354092472369532 2.3786612119188715 4.445005341917492
321 2 5.271586446728339 0.523660693355327 6.308533474717815
322 2 5.761571211250524 4.131113095584079 6.878091200111856
323 2 5.140847800435809 3.753290900481947 2.076283960605822
324 2 4.2175841902653035 0.726096478453896 3.676705320393677
325 2 5.816756281725478 5.234542925011885 3.1880784562276654
326 2 2.2400467435605274 0.8110467247362039 0.820226131143947
327 2 5.491023144286218 0.792416331849483 0.7183292884165752
328 2 3.2583633786632835 2.6773992902773713 2.741655135131572
329 2 4.768131310672896 3.052342736624412 0.98692197886799
330 2 4.711153811727792 1.176321920547279 0.742825810841972
331 2 1.198265590303067 3.2685747893417187 3.5438483495455153
332 2 0.777316479888817 2.943873656173153 4.373036623040217
333 2 5.224494462376189 5.047532887959463 6.260029273995245
334 2 5.828434224788581 3.723580040688838 1.289951022352003
335 2 1.658865391117627 3.079066215633936 1.238459440845847
336 2 0.7838887176127041 0.5569020940744911 0.16452320715416302
337 2 5.990839107387112 5.481572157807239 6.091812577872286
338 2 4.851560708556287 3.7096751410416062 0.18060074737127502
339 2 4.808379477229922 5.012064530656171 5.116459910038906
340 2 2.566920517298973 4.420400187463602 6.690700950959706
341 2 5.59291998701359 2.338195781304856 3.6002826883481487
342 2 1.976722706491071 4.810389169757061 3.0943290156373435
343 2 1.587928676511045 1.4890735305815048 5.95738044261096
344 2 0.346155958796131 1.6308383277661749 4.167722089186557
345 2 2.3572063862913057 5.267675693702554 2.6960839991783394
346 2 5.127431744916801 1.495428504248404 1.417322075761218
347 2 1.583148867257309 2.3360231407349756 5.538060812624121
348 2 5.875308945083743 3.2980683850778405 5.743321030463532
349 2 2.976789160806835 3.5213072036330098 4.3700492422566315
350 2 2.3087021855687353 2.248085513669083 2.356826174191577
351 2 3.294918056251514 0.996372965346968 1.330905297094241
352 2 3.414087391509432 5.7278409664031384 6.858265854911702
353 2 0.46901878302284494 0.643427504769962 4.77367154412609
354 2 4.328551807371923 5.451969930042625 1.0506346635797208
355 2 1.9413086652020266 4.6320696949841595 6.425149957306124
356 2 0.586830217924588 2.7357346895786483 0.19836208403004402
357 2 2.3828978610301372 0.040682694671002995 6.0303268497446805
358 2 3.152175570810398 1.8781934566470129 1.156496575347124
359 2 1.989649917881857 0.096410925288425 2.55068002903912
360 2 1.6711408103374492 0.170335020678592 3.852308994454228
361 2 5.066760757002902 2.321140552831298 4.104824144688531
362 2 5.353494996212814 2.84833178711268 3.241742678303701
363 2 2.4290664731400864 2.1611798908738833 4.814082658725857
364 2 0.04138880285621401 4.644453746232476 4.219430934749702
365 2 0.18141548758498 3.052451368652906 0.20363073741200297
366 2 5.410309547115175 4.733369061554814 3.10812528325608
367 2 2.6677853557556515 5.258550603309058 2.4691516916543734
368 2 0.532351255634847 4.876383127067165 4.609908761171384
369 2 5.686017635432948 2.364321784157663 5.95776065471069
370 2 0.315304462703835 5.3269344652460315 0.459785060600855
371 2 4.287000056472969 0.254959370875418 3.343585205016826
372 2 5.0237424737192775 3.9245492934027393 0.538163069159276
373 2 2.466055678842294 4.3562529746378935 3.646831512557827
374 2 3.4544985061092 4.124975385974168 4.377164640122988
375 2 0.14491512601099601 4.844010782575954 6.016421950097448
376 2 0.530939039264425 4.88138020037789 6.018323010596093
377 2 1.3139043846349299 2.31114640620985 0.510407585879059
378 2 4.715499092867551 5.038570745608707 3.2911702512684706
379 2 5.720236724408558 1.00104414257221 2.7612089002604923
380 2 4.8266839740311624 4.626529461530966 4.634894127725003
381 2 0.300041662700428 2.73388794509425 5.039385485822413
382 2 4.6327758031693715 3.561772634247025 6.068130795660593
383 2 5.735499524411966 1.191584720550686 1.586950988254599
384 2 4.271085464298598 3.211054130254146 4.320078509149392
385 2 5.091637491528027 3.159942760847719 5.93875004972424
386 2 4.356198658623647 4.847649955530502 4.086954176001269
387 2 3.059240870433781 5.28168922537828 3.359771377262432
388 2 3.4863820064721884 3.1667322626285936 4.3085091981147805
389 2 3.76230735884695 1.005443739726217 1.586081932026647
390 2 4.961713585449203 2.3362404047919636 0.011080466906388
391 2 1.445620719183905 3.587192528914621 0.010048462635695
392 2 4.276408433694804 2.983850242658945 4.095481790238047
393 2 3.256842530264367 3.101498729517947 2.177203115076748
394 2 5.371202016857337 1.302117809543331 4.745318584689156
395 2 4.428873485686133 3.5889849573847723 0.031014444135037
396 2 3.666656857757982 1.8100811747812748 2.985371091057861
397 2 4.3386002700076185 3.8478007652717268 0.949824141137289
398 2 5.716325971382775 0.966770737582353 1.238459440845847
399 2 5.651744230443091 2.6995059080759005 3.2432635267026173
400 2 5.104401754876072 1.8910120360093048 0.7565677624464628
401 2 2.8269855935136095 2.3818115407451965 1.1112513354793727
402 2 0.09016458365002 2.095131617549531 0.80604965142548
403 2 0.236980770159661 2.028268604011474 1.180341305601557
404 2 1.721491755544418 5.381956587678242 3.9470361233009963
405 2 4.162399119790351 3.8266175197153967 2.134727991935594
406 2 1.6488712444961788 2.388383778469084 1.8031830409719058
407 2 2.942352807774237 1.1091873269379873 4.603553787504485
408 2 3.791420742483341 4.419639763264143 0.073761147347426
409 2 2.500492031874892 4.786272859431393 2.6191725230045875
410 2 0.792144751778248 2.187686105826419 6.645618659134697
411 2 0.356367369474567 2.2288033286113977 4.648744711357988
412 2 1.9362029598628088 1.487661314211083 3.0019917914174425
413 2 0.17087818082106201 1.083767432270391 0.947651500567409
414 2 1.529484645181273 3.7448176022594155 3.706796392286515
415 2 0.37847398727309606 4.499755884278469 6.329608088245651
416 2 2.8870047892565434 0.18597803278172798 0.36120149474255
417 2 0.319106583701125 0.969595170323197 4.619414063664609
418 2 2.9985698825198814 2.9982439864344 5.585913221175727
419 2 0.8273958450245511 0.286951503266901 1.411075734122813
420 2 3.6323291367538775 1.2986959006457703 4.024490759617218
421 2 2.2511272104669153 2.668219883869628 3.830256692669946
422 2 5.299885090151025 3.083031284673967 2.5760999237067153
423 2 2.814167014151317 4.385149094217297 4.175434963209631
424 2 2.271604347838034 4.032312265668786 1.481795184672407
425 2 4.114872607324226 3.9297636307704495 1.472126934136441
426 2 6.01892048675281 1.9439701499001303 0.246431756638639
427 2 4.28281772337595 3.783327656360538 0.431377785149674
428 2 5.192991174112929 2.217559913662269 4.604205579675449
429 2 3.5245118484735825 1.4421988102863441 6.248405646946386
430 2 2.772941159337844 4.209165208057017 0.7338636684912171
431 2 0.12639336515276903 3.0015029472892203 1.449585788223936
432 2 1.9844898965283917 4.877469447352106 7.045112943921382
433 2 1.941851825344497 5.2617552481496315 3.6836034542030456
434 2 1.871078058780656 4.047194853572463 3.9346520720526796
435 2 4.2399623881350665 5.387170925045954 6.266547195704885
436 2 4.492423222355123 3.5006128022049037 4.254410447924769
437 2 0.354031780861946 4.893764251626206 0.5934567716627221
438 2 0.649293634308638 1.9100226409957548 2.3113636702668385
439 2 0.950204353237018 1.079693731201866 4.371570090655547
440 2 2.8614219465462067 5.002613544177194 6.4788141793821605
441 2 5.0307492395571405 1.525954104255218 5.630235088801279
442 2 0.7909497994648139 3.1723268120960353 5.29890740189458
443 2 0.808059343952619 0.799423097687346 1.812199499336908
444 2 5.7812336084079385 5.257301334981378 6.163129504578596
445 2 0.7943173923481279 3.817438113307654 1.7628805584006317
446 2 3.267271204999791 4.133883212310676 0.832229970292534
447 2 2.587940814812562 1.857390423190412 6.738499043497067
448 2 5.981768333007863 1.6765724117621488 4.181898568905024
449 2 5.596450527939645 4.870354049485749 3.865399153887755
450 2 3.777081314722133 0.46054548480031293 4.624411136975334
451 2 4.219539566778195 1.4133570067211871 5.294073276626596
452 2 4.566130053688302 1.2277048700249409 2.904331597801337
453 2 2.6662101913424894 4.573734295682882 3.019753128076212
454 2 5.267241165588578 0.9472712884676798 2.893468394951937
455 2 5.7988863130382144 1.698787661589172 1.35518455546265
456 2 0.45701494387425795 1.709162020310349 0.07663989610251702
457 2 4.154849193810018 5.709970997715875 1.0911000941937359
458 2 4.339903854349547 3.4880114868995986 6.287513177204225
459 2 0.7315823958928431 2.170033401196144 4.9590521007511
460 2 3.7556264890945683 2.5058693172853452 1.700471458030829
461 2 4.704418625961163 0.342245205770347 1.220643788172831
462 2 1.88422253422843 3.954097205153106 0.939504098430359
463 2 4.388245107029377 0.5634743317983779 6.238139920253703
464 2 6.005287167176814 3.7305868065267007 6.392723296800664
465 2 4.387756262901155 0.38249337232737396 4.074678756781446
466 2 3.9652863040879884 1.9125754936653636 2.703905505229907
467 2 1.9077956844116282 1.13629101804724 6.988461341061761
468 2 5.760865103065313 2.146080038913217 0.022758409969493004
469 2 0.24056562709996301 4.257940988850824 4.445276921988726
470 2 2.814601542265293 4.265436598816909 6.661098723195092
471 2 3.957301849993679 2.2214163506738056 5.46038891225091
472 2 3.5432508733887977 4.445385554017222 4.467926699929726
473 2 0.28135695379946 0.536262008660631 6.367031822061834
474 2 5.147854566273671 3.0327346554812453 3.5211442555902686
475 2 3.963222295546602 1.588526152667762 4.838253285065772
476 2 2.1757365826920787 5.467504310117267 6.000670305965818
477 2 4.797570590394768 1.4813606565584312 0.649185002280144
478 2 5.122271723563335 0.147522294694852 2.2760039449920413
479 2 0.4874319118525781 3.897499918307732 6.367737930247045
480 2 5.20184468443519 0.7332118763202531 6.074051241213516
481 2 5.36913800831595 3.80863891899964 4.962582641677156
482 2 1.1927796728641202 4.260765421591668 4.216606502008858
483 2 0.6652082264830089 4.266034074973628 6.064002778577821
484 2 4.761015912806537 3.228924098941409 1.7734721811787968
485 2 2.9117185757389286 2.060640948502686 0.34599301075339
486 2 1.782380007515305 4.346801988158916 3.3690050996844216
487 2 5.208851450273053 2.1164778111486022 0.924132666398458
488 2 1.426718746225949 2.895695351536064 2.2402640076175158
489 2 0.6463062535250531 0.6781354378737949 2.3873517741983914
490 2 3.2149105672656826 4.9744235327830015 2.811831425538696