ITEM: TIMESTEP
1
ITEM: NUMBER OF ATOMS
8192
ITEM: BOX BOUNDS pp pp pp
0.0000000000000000e+00 6.107488179583969
0.0000000000000000e+00 5.741126663487954
0.0000000000000000e+00 7.055041911325733
ITEM: ATOMS id type x y z
1 2 2.269268759225413 4.540547210977964 3.2417969943179483
2 2 4.8413492978778505 3.9678934727718436 4.689590354071734
3 2 2.4781681500193753 2.5851706980859643 7.011328383059746
4 2 2.294362757807527 0.974809507690909 5.195815606853772
5 2 5.5916164026716615 3.7903887382126484 5.648811165673753
6 2 5.904639592777123 4.2544647639390165 1.552840531307483
7 2 6.092790266128731 4.236377531194765 5.584555320819552
8 2 0.646143305482312 3.424516066244856 5.09429897622613
9 2 4.932274305727329 2.4777879379196457 2.671696108781436
10 2 4.499158408121751 2.565236720857316 6.602871955922309
11 2 4.005045626516792 0.329480942422302 2.0806292417455823
12 2 4.1277455027007655 0.030036755878590997 6.460183786495438
13 2 2.790702495996613 2.278285217590415 0.32540724135377697
14 2 3.299371969419768 3.4038216648167485 4.999463215350867
15 2 4.171687158226589 2.422059707302224 1.22917140240961
16 2 1.4896166907239752 1.6554977982343129 3.7694770727275526
17 2 1.7699416402527421 0.8208779233149109 6.030435481773175
18 2 3.561120842076061 4.433924875011104 2.438680407661806
19 2 1.227596237996447 2.339064837532808 5.618448513709678
20 2 2.229618068825103 5.352571623970616 2.237113678791189
21 2 3.243969634887828 4.434033507039597 5.172351088699069
22 2 3.4962132050508963 5.5979713763385615 6.954350884114644
23 2 4.85259271282698 0.9133237795633051 0.6230046834130899
24 2 1.7993809199746156 4.405463283545676 0.562931171655908
25 2 3.000036414904551 5.59851453648103 0.575152274861483
26 2 0.880408274929623 3.423266797917175 5.4318730047712345
27 2 0.798228145373912 1.258556366117237 5.341871369163956
28 2 4.461517410248581 0.0814740213705 2.255472491606675
29 2 4.940638971921367 5.468590630402207 6.446115938805465
30 2 5.234651557040379 5.5022665592353475 1.37854044158886
31 2 4.951230594699532 5.6800971898800245 6.226353345162104
32 2 3.9817983724190755 4.500027464349703 3.5700829844268154
33 2 5.9158830077262525 3.340760772275982 3.7467729787723068
34 2 1.0641593511272238 2.659909533689837 3.176128933093325
35 2 0.03514246121780899 3.4263628107292536 4.673838709940103
36 2 5.737291952882115 2.6161851422210014 5.433393853170152
37 2 3.7048953317878697 3.1901967807832983 1.4419815462293561
38 2 0.9943089568055818 1.451812744808063 1.733386962664511
39 2 4.0712025318696385 4.564174677175411 6.646867927462378
40 2 4.764220557647111 5.297114973424429 2.403809526515232
41 2 3.069886809226193 0.12275419219822002 3.581760927489921
42 2 0.03476224911808 4.016289041465921 5.0832185093197415
43 2 6.092192789972014 1.8666784616266492 2.0570560915623837
44 2 1.8541314623355918 5.325848144961091 0.638919275587461
45 2 5.924356305948784 1.662939092186152 2.516895468177486
46 2 3.694303709009705 0.105101487567945 2.9186167095482975
47 2 5.291574739971234 0.5949776200616381 3.04930103982658
48 2 3.587138212900374 1.8407697228308302 5.1617594659209045
49 2 2.4635028261726855 4.480528015235031 4.703169357633483
50 2 4.59823081810828 1.7554392644487933 3.455204614294411
51 2 3.1199118583476797 1.9853589527563438 3.054461061180045
52 2 4.381890133362479 4.808433793244169 5.246166552060742
53 2 5.8687910233741025 2.297676034676594 0.665045278440268
54 2 3.711739149582992 1.6952571206631168 1.127763403810461
55 2 4.1739141148107155 0.7974134051602071 4.440768692806226
56 2 1.483316033071323 3.351895555196617 4.3682568137864815
57 2 4.292757553983151 1.6614182437872358 4.057569212293641
58 2 0.25506800290391196 3.5763836420794677 6.776194357384485
59 2 2.8321999308813206 3.7234714086603433 0.7468995119104969
60 2 4.031660473497822 1.055414472833457 2.553069933665988
61 2 0.953571946120332 4.7718791156559375 1.713561617464356
62 2 2.1869256816269615 4.2408857603772665 0.251591777992104
63 2 2.3297224830823238 2.743664827658711 6.123967658306509
64 2 5.671949787742975 0.5392493894442161 2.034189049564397
65 2 0.343874686197757 2.529768363554025 5.298690137837591
66 2 0.276685776574218 1.837782342047245 6.02853442127453
67 2 1.8141548758497998 5.155676072325241 0.9043616372125499
68 2 1.152694454349834 0.15360568829051602 3.0074233928421434
69 2 3.3871466484429202 5.4230738104632215 4.795126369753653
70 2 3.031159491068082 1.6800486366739569 6.502495961593851
71 2 0.522737321113128 3.7903344221984008 2.2729079321799617
72 2 1.9065464160839465 1.5584893967891709 3.800219936791355
73 2 5.426278455303794 4.948786374058416 4.952968707155436
74 2 3.162224033446093 4.193033351825659 5.9283213749888155
75 2 4.688232453715559 0.444576576611695 5.272618450999031
76 2 2.35296973718004 2.3890898866542947 1.475114314920026
77 2 4.272932208782996 4.323391786018459 0.463098337469922
78 2 0.757002290560439 5.732620775656874 1.35735719603253
79 2 2.9365409942498077 2.6211822155317255 1.106525842239884
80 2 1.5389899476744981 3.147015549456933 6.747950029976045
81 2 0.42225269475617794 5.169961184072201 1.479188015988551
82 2 5.904096432634652 1.1261882393972977 4.299818635835261
83 2 1.6319789640653617 5.049325316429615 4.499701568264221
84 2 1.7094336003815842 2.9671752262851157 6.376808704626293
85 2 1.381419190343951 3.3890477089415647 4.6250086131320485
86 2 3.818796013663829 0.730984919736126 6.356820411383399
87 2 6.092247105986261 4.9445497249471515 4.724732815289542
88 2 5.290108207586565 1.6326850722505728 1.818608789018054
89 2 0.31899795167263095 0.944501171741083 2.847842942984457
90 2 5.8138232169561395 4.967145186873903 4.5872589832303845
91 2 3.352547347367581 1.7109544487804997 3.303391354474046
92 2 3.088625834141408 3.6416714912043626 2.2154415891066357
93 2 3.766435375929721 3.678660696906569 5.9609109835370155
94 2 0.42002573817205097 4.545272704217454 6.63035585913129
95 2 5.486732179160706 4.173968430824962 3.2748754469943706
96 2 1.1644267134271862 5.465929145704104 4.221223363219852
97 2 5.484070694462602 2.670772736539237 3.481221985118724
98 2 5.507589528631553 1.2259124415547897 3.2020376718891446
99 2 0.04736356442338399 5.060242835293261 0.812187361035391
100 2 5.690417232586954 5.65266760268529 6.0826331714645425
101 2 1.7456080658700859 5.239485682308361 3.084660765101377
102 2 3.764154103331347 3.242014258374936 0.633107462063032
103 2 4.6222928124197 1.80600747371275 4.742113939848582
104 2 2.2488459378685413 1.422156201029201 1.543172280771517
105 2 1.1038643575417808 1.035371863576314 4.253975919810793
106 2 1.406839085011547 3.657423135335992 3.460581899704864
107 2 1.001750250757421 4.27792928209372 6.031576118072363
108 2 2.641496404860104 5.7158371272545505 1.592708485764781
109 2 5.6810205621222245 0.030145387907084997 1.156442259332877
110 2 0.18146980359922701 3.164342358001726 6.999433175939654
111 2 2.460298181332112 1.8812894694590918 1.063453242942013
112 2 0.3482742833517639 4.666343099974015 1.885526118570358
113 2 4.37624126788079 3.126158199986085 2.767889770012873
114 2 3.4322832562821772 1.2039144557847552 3.6549245986806294
115 2 0.23133190467797302 4.302806016618846 1.653705369764162
116 2 3.8815310101191143 0.597476156717 3.008401081098589
117 2 4.935859162667631 1.7960133270913017 7.058420367411896
118 2 3.246522487557437 4.127093710529801 1.9035590353003624
119 2 5.212870835327331 1.0870807091394579 1.9371263321050083
120 2 3.7718126613401743 0.25800106767325 1.9041565114570789
121 2 4.984309047375955 1.233353735506629 4.31432101163921
122 2 0.36217918299899604 4.76552414198904 1.276317702776006
123 2 4.875242490767979 1.0570982692751139 1.08360448422765
124 2 4.04708622154397 0.5104075858790591 1.7776001982615688
125 2 1.2791964515310972 1.9832949442149579 1.375390112762534
126 2 5.545773686647193 2.300120255317709 2.609830168554103
127 2 3.7918009545830693 1.02385686855595 2.7215038938459353
128 2 0.258218331730238 4.293192082097127 3.176726409250042
129 2 1.3677315547537068 2.2166365414200704 6.776248673398731
130 2 4.034702170295653 1.6890650950389587 4.885182321375181
131 2 1.135639225876276 2.390556419038964 1.5939577540924619
132 2 6.067587635518123 0.504215560254901 1.2614351148723277
133 2 4.467600803844244 3.070321337340169 4.496496923423648
134 2 5.6486482176310115 4.509532766842928 0.13861446835834398
135 2 4.286185316259264 4.170166309827672 6.5880980000471245
136 2 0.8477100343529291 3.77604931045144 0.815772217975693
137 2 0.693561185919943 5.656632671725322 6.000615989951571
138 2 3.307356423514077 2.2609040930313746 2.9829268704167458
139 2 0.079953172971584 1.973626693678992 2.295666342149455
140 2 6.010881716644255 4.333766144739636 2.936378046207067
141 2 5.5228523286349605 1.927892609683018 2.2064251307416343
142 2 5.723550001277624 2.567083465341714 1.1505218137799542
143 2 2.726609599185153 2.1302197627530925 1.4945594480204518
144 2 4.643258793919042 2.943058915959448 5.561525330778824
145 2 5.881555286722148 3.968979793056784 6.210167172916498
146 2 3.7176595951359146 1.44100385797291 3.594144978738237
147 2 2.2836625030008677 2.3662771606705553 6.924477076278795
148 2 2.846865254728011 4.953294603240918 0.09565050108896699
149 2 1.9517916559516981 0.31448972249012996 6.66946338938913
150 2 5.433937013312621 5.245188863804296 1.375770324862263
151 2 2.4379199834623484 0.41948257802958105 2.2675849627837557
152 2 5.326011093003833 2.629818461796999 2.620964951474738
153 2 5.319982015422415 1.0028365710423608 2.9442538682728823
154 2 4.741027619563643 2.4045156347004433 6.597440354497608
155 2 4.976215961253152 2.864355011315545 2.677507922305865
156 2 2.2789370097613793 1.7481609185396951 5.5029183514063105
157 2 1.104733413769733 1.58928657686722 6.606239548805623
158 2 0.09907240998652798 5.06551148867522 5.203365532834106
159 2 3.4817651452611935 2.8715247251961493 1.8079085342113947
160 2 4.6603140223926 0.048232620651336 0.26256361286999796
161 2 5.268707697973246 3.329191461241371 4.492097326269642
162 2 1.4523559049505328 0.16197035448455402 3.6276036435143895
163 2 3.2799268363193423 2.560728491674815 3.399313435634248
164 2 4.599262822378972 1.273221689963927 0.9101734507369791
165 2 4.297700311279628 3.517722346692708 4.076308237208856
166 2 4.281894351133751 3.720592659905253 0.826418156768105
167 2 4.483678344061356 4.260928369634409 5.656361091654086
168 2 0.5333289438912929 3.449501432798476 2.913673952251821
169 2 4.399325573935766 5.575484546440303 0.33904056092977397
170 2 2.600976658231841 0.440014031414947 5.1753927854969
171 2 2.9552257031507767 1.489562374709728 3.733248291224804
172 2 1.2029910835425561 3.7891394698849674 6.869835165946314
173 2 6.0669901593614055 0.9265768870395731 4.938683595408476
174 2 0.338171504701822 3.987664501957751 2.9682615465700564
175 2 1.546594189669078 4.9251045918467256 5.073604574798024
176 2 4.379011384607386 1.499393573288435 1.8074196900831716
177 2 3.208664225627278 1.645449335598618 1.8795513570031879
178 2 3.39094876944021 1.7072066437974567 4.000157185234561
179 2 5.734576152169766 3.104431794287285 6.611453886173334
180 2 2.0133317000935493 0.46005664067209007 1.69357332422146
181 2 0.024768102496632003 4.58753056330162 5.907518341532215
182 2 5.141716856663761 0.829568485594431 4.998974371222646
183 2 1.357465828061024 5.324164348519433 2.947567145141949
184 2 2.4500867706536757 0.184946028511035 5.273596139255477
185 2 0.522845953141622 3.9154242030092417 5.5285011941166475
186 2 5.9824201251788285 2.9065042383712174 4.620989228077772
187 2 3.2584176946775303 5.161053357735693 2.5866372304706338
188 2 2.940506063289839 3.458083363049502 4.217638506279549
189 2 1.5763593654764338 1.229008454366869 4.46586269138834
190 2 1.893945100778643 3.1582046483918154 0.42246995881316596
191 2 1.230583618780032 5.219334441022724 6.903674042822195
192 2 0.9921363162357021 3.538090852035334 2.705915197757046
193 2 3.439018442048805 3.16879627116998 1.824855130656459
194 2 5.122760567691558 4.57721052059469 0.449953862022148
195 2 3.9216162286334004 4.591169736256169 1.461318047301288
196 2 1.9550506168065183 1.362191321300513 0.6932896058487081
197 2 0.420297318243286 3.705329859901845 0.6282190207808019
198 2 4.139532077792364 1.8893825555818953 3.7620900947899614
199 2 3.0104107736257277 1.123200858613713 2.14276676204415
200 2 3.091341634853758 0.293632373019282 4.8431960423622495
201 2 2.2294551207823616 2.586800178513375 1.226075389597531
202 2 5.879545594195009 3.3938275181953013 5.640337867451221
203 2 0.562822539627414 1.741480048787314 6.122772705993075
204 2 1.026952881368029 4.42441957251788 0.14795682280882802
205 2 0.732505768135042 1.0062041639256751 5.606933518689315
206 2 5.6751001165693005 1.702752730629203 2.332709863865909
207 2 1.4557778138480941 0.454733671275884 0.5257790179109599
208 2 4.942105504306037 1.253124764692537 3.94241926209
209 2 0.9545496343767779 4.416163538352336 6.298322064039378
210 2 2.169272976996686 1.005498055740464 6.164976249062994
211 2 2.486261236142178 2.629275301654529 4.971653416056404
212 2 2.543401683130022 0.65613745210376 1.1499243376232369
213 2 5.92028260488026 1.9800359833601378 7.045275891964123
214 2 4.803273771890703 0.305147368039646 6.990633981631641
215 2 1.4139001668636568 2.4475882339983137 6.035812767183629
216 2 0.637289795160051 4.469230284271655 6.278116506739495
217 2 1.1669252500825478 4.055613835780748 6.712481672672754
218 2 4.672317861541187 0.366796044209991 4.680193683607002
219 2 2.6491006468546843 4.17364253473948 0.26832111038018003
220 2 5.998008821267716 2.8737516817802753 2.6608329059320357
221 2 0.085113194325049 2.9501743138258054 2.2345065101073325
222 2 4.90761483525919 2.578109616233855 5.9787809522242785
223 2 2.7664232376282043 3.8496475097561254 5.976879891725633
224 2 5.710079629744368 2.8922734426385035 6.818778112554133
225 2 0.535175688375691 3.3795967224625865 4.838198969051525
226 2 5.770098825487304 4.754715255153885 2.082258722172992
227 2 5.797799992753275 0.311882553806274 0.348817443494234
228 2 2.9969404020924717 2.214681164907178 4.66846142452965
229 2 4.176304019437584 2.433846282393823 6.200553238394779
230 2 3.5804573431479927 4.83792738898029 4.585194974688999
231 2 0.6032336542271821 2.469043059625879 3.7054928079445872
232 2 1.045094430126527 5.027164382616838 0.019119237014943998
233 2 5.018745400408553 4.0401880877346015 0.7414679104857971
234 2 4.051920346811953 0.37613839866047494 2.453617311579731
235 2 4.802459031676999 0.270656698992801 2.754310766451123
236 2 5.1418254886922545 4.867149404645176 6.73192680577318
237 2 5.0361808409818405 1.0114185012933872 1.5238357796995852
238 2 4.0146052450242635 0.794263076333881 2.377086047505708
239 2 6.094474062570389 3.3884502327848476 0.48596537946790896
240 2 3.453140605753025 3.565954967344044 6.110768866844487
241 2 3.0127463622383486 1.1664907219685718 2.65713941696324
242 2 2.9965601899927434 2.0546118709212684 1.504770858698888
243 2 2.693802726579965 5.069693821772239 1.059325225859241
244 2 0.6557572400040309 1.317271977518244 6.313313283971551
245 2 4.427135373230228 0.972148022992806 4.930536193271426
246 2 3.9709894855839236 5.485754490904259 3.75703870546499
247 2 4.578133892836889 0.30493010398265796 3.584531044216518
248 2 4.4393021604215575 1.492386807450572 0.337248132459623
249 2 1.3834831988853369 2.983632978601957 3.834601973809706
250 2 2.160528098702919 4.620500383949548 2.2104445157959116
251 2 2.8515907479674993 4.715770672938787 1.927729661640277
252 2 3.4839377858310736 3.363301918188487 3.247826071899365
253 2 0.6052976627685681 5.329324369872898 6.04102710455134
254 2 1.00701890413938 1.4184627120604052 0.198579348087032
255 2 5.494879581297755 3.576818170193444 5.41096133928614
256 2 5.5522916083568346 4.976650489367129 1.970367732824172
257 2 0.417255621445454 3.9049955282738176 2.5119527108810087
258 2 1.212387754007287 1.5408366921588958 5.521603060307279
259 2 1.4884760544247881 1.0502001354657449 4.9020202857917505
260 2 0.6207777268289629 2.9893904761121393 4.179562980292403
261 2 2.3560657499921196 0.534360948161986 6.953916356000668
262 2 3.803478897646175 1.3863076316261809 1.5602818252593218
263 2 5.085119569818388 2.0300610324816253 3.8044565859026203
264 2 3.6035416492029677 0.842495696985217 5.736531528682657
265 2 3.826997731815126 5.469785582715641 4.017864205879084
266 2 1.589123628824479 4.7784513533798245 4.374937683538861
267 2 2.6316108902671504 4.093580729739402 5.287012194774485
268 2 5.286143138546533 3.118553957991505 3.045281654772302
269 2 3.5569928249932885 3.308442743799017 4.904518822447112
270 2 0.107111180095084 3.390514241326234 0.765258324725983
271 2 5.591127558543439 4.735758966181684 2.3295052190253362
272 2 3.08677908965701 3.2050250526727284 0.36663309616725004
273 2 5.978563688167289 0.255991375146111 0.6249057439117349
274 2 0.478849981601552 4.005751734702002 6.769024643503881
275 2 0.529092294780027 4.47401009352539 0.7115397866357001
276 2 1.710302656609536 3.897825814393214 6.274042805670969
277 2 4.448535882843547 1.694442380449412 2.902376221288445
278 2 2.7464349443853076 3.200408191461734 1.00864838456679
279 2 1.912032333522894 0.421166374471238 3.0823251764887556
280 2 5.677815917281651 0.20314189328378 1.5354594067484428
281 2 5.343935377705342 0.8446140215408501 5.658750996280954
282 2 4.430122754013814 4.53212822876968 6.627965954504422
283 2 3.7640454713028535 0.701002479871782 4.773725860140336
284 2 3.1149147850369565 3.6737179396100927 5.215206423939952
285 2 5.5694554688588855 1.391141756894164 0.6640675901838221
286 2 3.7996767766488837 5.704756660348163 1.914530870178256
287 2 0.18277338794115497 2.304737116528704 6.618786548096679
288 2 4.287977744729415 1.09501084721952 1.83099284026637
289 2 4.364346060760697 4.714249824539871 2.491855785609619
290 2 0.727943222938294 2.350416884510431 1.3946722978202188
291 2 1.5062917070978041 4.997236258766741 3.8272149958721142
292 2 0.20922528687944403 0.6509774307502949 6.50993725554569
293 2 3.54846521075651 1.9452737342420585 6.4487231074893225
294 2 4.324152210217917 2.1735096261079523 4.397641777494108
295 2 4.162670699861586 3.6892523196847335 5.810075411973096
296 2 1.894922789035089 3.366180666943578 5.352082779842391
297 2 3.310941280454379 0.5141553908621019 2.3408572660029585
298 2 3.5842051481310357 5.48988250798703 3.027194422028051
299 2 0.16636995163856097 1.706772115683481 6.676252891170004
300 2 0.1901060498645 5.21759632856682 2.877825382848801
301 2 0.866014531154168 1.8144807719352818 3.821837710461661
302 2 4.635654551924462 0.7490721524803768 1.0924579945499109
303 2 0.26658299792427603 3.554168392252445 1.331502773250958
304 2 4.520993445849045 1.549038410310193 6.918067786597649
305 2 1.005117843640735 0.15767938935904102 0.577705127531092
306 2 2.237602522919412 3.4441784634022703 6.698305192954288
307 2 5.068553185473051 2.376162675263509 5.054974181911302
308 2 1.691780895751309 0.28858098369431107 4.923529427433561
309 2 2.9399085871331216 2.3487874040830206 1.7484324986109299
310 2 3.645202032130417 5.396404647467944 1.864016976928546
311 2 0.819248442887501 3.130829377211327 1.233788263620605
312 2 1.4657719604695418 1.8043236772710927 2.4359102909352095
313 2 0.9684002180097631 4.193467879939636 3.341955724589416
314 2 1.4986874651032238 2.7947218810508914 2.5463347478993597
315 2 6.008926340131363 3.9066250087012286 2.0861694751987763
316 2 3.761981462761467 2.2890941044255677 2.176116794791808
317 2 1.905460095799007 0.540118445672168 1.078064250774456
318 2 5.2328048125559805 2.0576535677191012 6.91785052254066
319 2 2.2024057456873556 0.9229920300992711 2.098879422532574
320 2 6.038691515938719 2.03522105383509 4.392210176069408
321 2 4.655860109224346 5.3868450289604715 5.921640505236434
322 2 5.793128815528033 4.705830842331586 6.619003812153667
323 2 5.067847077287841 4.197758845065148 1.622745241643372
324 2 3.971206749640911 1.2143431305201793 4.356415922680635
325 2 4.736030546252918 5.265720317189662 2.977929797106022
326 2 2.696083999178339 0.33083884277847697 0.256154323188852
327 2 5.759615834737633 0.698123731116691 7.011925859216465
328 2 3.64514771611617 2.865767227685967 2.120171300117398
329 2 4.218398930479009 3.996083484166036 1.6087317099676461
330 2 5.29271537627042 1.020109063572907 6.441390445565977
331 2 1.206575940482858 3.337556127435409 2.99063974443982
332 2 1.000772562500975 3.1410407878897626 3.232508955881711
333 2 5.375601614011344 5.0074476694451775 6.649094884046504
334 2 0.459024636401397 3.9040721560316185 0.9256535147973738
335 2 1.7261086167554132 3.1357721345078033 1.774123973349761
336 2 1.0516123518361669 0.007441293951838999 0.3225828086129329
337 2 0.131227490420752 5.49895328236628 5.938641417695744
338 2 5.6061187784756115 3.401866288303857 6.0912151017155685
339 2 4.305902029430925 5.466472305846573 4.396609773223415
340 2 4.142356510533208 4.0652820863167145 5.953252425528189
341 2 5.032161455927562 2.2626422054872792 3.061196246946673
342 2 1.665546260870008 4.402041374648115 3.162115401417599
343 2 1.7341473868639692 2.735951953635637 5.265122841032945
344 2 0.693235289834461 2.139236221118095 3.9043437361028537
345 2 1.7824886395437989 0.001792428470151 2.609287008411633
346 2 5.022330257348855 2.010018423224482 1.4500746323521592
347 2 1.9274037655547949 2.5699078980825583 5.08631452213182
348 2 0.28075947764274295 3.931827639311836 5.808554563574179
349 2 1.7896583534244028 3.8664311581584476 4.694207215282727
350 2 2.2143009528074495 1.6344231847064767 2.533135956437339
351 2 3.2409279380899965 2.022402474472798 1.292829771107094
352 2 3.8145050485383156 0.024224942354161998 6.898568337482977
353 2 0.508180629294932 0.180437799328534 4.988165484387492
354 2 4.690187830228449 0.546201839267832 0.31731415523097395
355 2 1.72290397191484 4.925267539889466 6.615310323184872
356 2 1.444425766870471 3.222188913174781 1.526660212440429
357 2 2.6834283678587876 5.640989659622184 6.894548952428698
358 2 2.77989360916146 2.3832237571156187 1.353500759020993
359 2 2.6282976133980833 5.315745366311149 2.0272909157550276
360 2 1.4286198067245939 0.477546397259624 2.775168115921971
361 2 4.288955432985862 2.779947925175707 3.9836994329177213
362 2 0.106405071909873 3.3585221089347517 2.5288449913118263
363 2 2.535743125121195 2.9917803807390073 4.745427216717649
364 2 5.0859343100320915 4.699312920621946 4.143877358932124
365 2 0.535284320404185 3.013724050494795 6.79927866343946
366 2 5.173817621083738 5.329867530015369 2.4598636532181364
367 2 2.771420310938928 0.057629291116067 2.0696030908534406
368 2 0.40476293816864406 4.441746381062672 3.925852877744666
369 2 5.602262341464074 1.906709364126688 7.034792901214454
370 2 6.063894146549327 4.924181219604526 1.054056572477282
371 2 3.944700534688375 0.6071987232672129 4.399651470021246
372 2 5.980247484608948 3.177269569392512 6.8729311787583915
373 2 2.188066317926148 3.7982645602784633 3.655522074837347
374 2 3.5907773858549223 4.591767212412885 4.229479397385397
375 2 5.7554335016406135 4.345552719831235 6.441499077594472
376 2 0.255448215003641 4.577047572551948 4.921356786863682
377 2 1.530951177565942 2.658714581376403 0.671617516164155
378 2 4.433055818783152 5.238127781952186 3.2567338982358733
379 2 5.07382183885501 0.4787956655873051 3.381063254847256
380 2 5.025046058061205 4.28770616465818 5.335950923611033
381 2 1.1127178678640417 2.700266332275358 5.19206780187073
382 2 4.769380579000575 3.259395382933976 6.17410133945649
383 2 5.799972633323154 0.5928049794917579 0.671563200149908
384 2 4.171578526198094 3.156901064049887 4.2220924194478044
385 2 5.9104514063015525 2.9911829045822897 5.62659591584673
386 2 5.280548589079093 5.12145698334963 4.260874053620162
387 2 2.265792534313605 5.623662851077393 3.3885588648133425
388 2 3.4506963851119097 3.6490584691419543 3.8335699695390133
389 2 3.0104107736257273 1.3728915761071718 1.5769025256189038
390 2 0.309166753093924 2.824269792801259 6.812151558815999
391 2 1.585375823841436 4.391178171798714 6.935014383042714
392 2 4.233009938311451 2.101160695130948 3.135011710308346
393 2 3.54411992961675 2.618357782790882 1.9442960459856116
394 2 5.318135270938017 0.9939830607200998 4.18054066854885
395 2 3.503057022846018 3.6298849161127635 6.679185955939341
396 2 3.290355511054766 1.6295890594384936 3.609516410770138
397 2 4.46314689067599 4.179400032249662 0.10303747902655899
398 2 4.786598755516874 1.457461610289751 0.758740403016343
399 2 0.043344179369106006 3.104486110301532 2.8780426469057887
400 2 5.220529393336157 1.3331865696926148 0.38336242855532593
401 2 4.685679601045948 2.754310766451123 0.704044176669614
402 2 6.063731198506587 2.223480359215192 1.402276539814799
403 2 0.148228402880063 1.596999450890294 2.29322212150834
404 2 1.93799538833296 5.404443417576499 4.927983340601815
405 2 4.11389491906778 3.685450198687444 2.143255606172373
406 2 1.9602106381599829 2.1539558609790324 1.406458872911818
407 2 2.2104445157959116 0.4406115075716639 4.565858473617067
408 2 3.8180355894643707 3.8505708819983244 7.048100324704967
409 2 2.3488960361115154 4.593559640883037 2.6614303820887533
410 2 0.605677874868297 2.272256140008998 6.4581740939682994
411 2 0.857975761045612 2.6235721201585944 4.41953113123565
412 2 2.4659470468138 1.611882038793972 3.417889512506722
413 2 5.702855599849518 1.1799067774875809 0.46907309903709193
414 2 1.380278554044764 4.208187519800571 3.87924973752074
415 2 5.566902616189277 4.239256279949856 5.258659235337552
416 2 3.372372692567736 5.2248746744759185 0.19640670751715197
417 2 1.3296017127523128 0.3264392456244699 4.694315847311222
418 2 2.7758742241071817 2.3731209784656766 6.2163048825264084
419 2 0.658961884844604 0.925110354654904 1.416398703519019
420 2 3.559382729620156 0.8322842863067811 5.193914546355128
421 2 2.242816860287124 3.408818738127473 3.604356389416673
422 2 4.991152865171077 4.042523676347221 2.260849777017128
423 2 2.309408293753946 4.870245417457255 4.100370231520276
424 2 2.5556227863355967 4.072234536140331 2.043802984086116
425 2 5.022927733505572 3.79777571615024 0.43632054244615104
426 2 0.07794348044444499 1.2120618579218048 1.061280602372133
427 2 4.531639384641456 3.4204423651763314 0.453864615047932
428 2 5.264471048861981 1.9514657598662157 4.281459823019775
429 2 3.2960586925507007 2.2685083350259547 6.562895369436515
430 2 0.7191440286302802 3.690664536055156 0.567276452795668
431 2 0.371304273392492 2.9043859138155836 1.656855698590488
432 2 2.280620806203036 4.499701568264221 1.558217816717936
433 2 1.2673012444110041 0.178645370858383 3.282099476889222
434 2 1.7877029769115107 3.7519873161400192 5.076863535652842
435 2 3.103942950159062 4.282328879247728 6.583752718907363
436 2 4.204711294888765 3.918574531835568 3.8935348492677013
437 2 1.0405318849297789 4.784914959075218 0.70121974392877
438 2 0.5354472684469259 1.7090533882818553 2.564421980643611
439 2 0.400580605071625 1.505748546955334 3.713205681967661
440 2 2.9689133387410203 3.896848126136768 5.562394387006775
441 2 5.36968116845842 2.5080419578552253 5.6165474532110355
442 2 1.2358522721619911 2.8680485002843406 4.449079042986018
443 2 0.7151789595902491 0.8621580941426311 1.9264803933125958
444 2 4.584217286432552 5.092452231741732 5.451046557800425
445 2 0.7600983033725178 4.636306344095425 2.630578885996457
446 2 3.1733045003524807 4.395469136924228 1.48391350922804
447 2 2.302401527916083 1.768583739896567 0.517251403674181
448 2 5.913981947227608 2.203274801915308 3.7728446656108665
449 2 5.528338246073906 0.30302904348401305 4.150612544698752
450 2 3.579479654891547 0.249364821407977 5.992034059700546
451 2 4.59785060600855 0.41931962998684 5.741582918007628
452 2 3.4957243609226727 1.192399460764391 2.3608998752601016
453 2 2.02272837055828 3.959691754620547 3.482688517503393
454 2 4.693827003182999 0.48889844423724704 3.1635819338022677
455 2 0.4626638093559459 1.3661020743262968 1.4611007832443
456 2 0.666294546767949 1.5917851135225818 0.342571101855829
457 2 5.044708455218619 5.7299049749445246 1.4249806337700448
458 2 4.869104781158069 2.734431105236721 5.174740993325937
459 2 0.6728124684775889 2.106700928584142 5.649680221901704
460 2 3.2296845231408673 3.0021547394601833 1.5250307320130188
461 2 5.814855221226832 0.7224573054993472 0.9163654763611369
462 2 1.5887434167247498 4.898978588993917 1.112066075693078
463 2 4.0085218514286005 1.661472559801483 6.603903960193001
464 2 5.20510364529001 3.6156541203800483 6.184367066149171
465 2 4.43055728212779 0.7737316229485149 5.175990261653618
466 2 4.0926573574972025 2.184535777000093 2.889014481783683
467 2 1.200764126958429 0.37331396591963106 0.43865613105877194
468 2 5.857221712339492 1.9599933741029951 6.509448411417468
469 2 0.22671504346697802 3.7385169446067636 4.6938270031829985
470 2 3.381334834918491 3.9712067496409102 6.3478039530183965
471 2 4.187112906272737 2.735245845450426 5.163606210405303
472 2 3.4846438940162847 4.728371988244089 4.001134873491007
473 2 0.404274094040421 0.09928967404351599 6.823720869850609
474 2 4.29856936750758 2.7829896219735395 3.425059226387326
475 2 4.871603317813429 1.611067298580267 5.504982359947697
476 2 1.82175911784438 4.5951348052962 6.171874382872363
477 2 4.863021387562404 1.3892406963955188 1.139332714845072
478 2 5.392711158499148 5.579395299466087 1.901657974801717
479 2 5.918435860395861 4.227469704858256 5.120696559150172
480 2 5.4658205136756095 0.7037182805841319 6.3530182903861085
481 2 5.702095175650061 4.287597532629686 4.590952472199181
482 2 0.643047292670233 3.7533452164961942 4.003361830075135
483 2 0.703066488413168 4.2915626016697175 5.955968226240539
484 2 5.00560092496078 3.593438870553026 1.3416055519008998
485 2 2.2340176659791102 1.923710276585999 6.416405079012357
486 2 1.0298316301231198 4.830703359085439 3.512942537438972
487 2 5.798397468909991 2.16992476916765 1.5343187704492558
488 2 2.644592417672183 2.5697449500398166 2.0927960289369096
489 2 0.6937241339626841 0.37461755026155896 2.532864376366104
490 2 2.2034377499580495 4.269673247928176 2.6257990767427213