ITEM: TIMESTEP
1
ITEM: NUMBER OF ATOMS
8192
ITEM: BOX BOUNDS pp pp pp
0.0000000000000000e+00 6.27195
0.0000000000000000e+00 6.27195
0.0000000000000000e+00 6.27195
ITEM: ATOMS id type x y z
1 2 1.16185 3.3954500000000003 0.29429999999999995
2 2 4.39715 0.5003 3.00355
3 2 3.8259999999999996 5.7542 6.04285
4 2 1.7882000000000002 5.077999999999999 2.39875
5 2 0.7455 0.7615500000000001 1.5693
6 2 2.18915 3.1555 2.4959499999999997
7 2 4.842499999999999 1.9812500000000004 1.2965
8 2 3.8024999999999998 3.8694499999999996 3.95955
9 2 4.74335 1.39215 2.7123
10 2 1.7071999999999998 0.71665 2.3193500000000005
11 2 0.34929999999999994 4.8503 0.5775499999999999
12 2 3.92975 5.14825 2.3363
13 2 5.49395 0.6238999999999999 3.839
14 2 0.8934500000000002 5.93 5.0822
15 2 3.81165 0.83675 0.67835
16 2 2.7642499999999997 5.224400000000001 0.14529999999999998
17 2 3.65525 0.9835 4.1671
18 2 2.38175 1.5111999999999999 1.09195
19 2 4.81945 5.0436 4.973
20 2 2.13565 4.126799999999999 4.60555
21 2 5.009950000000001 4.236800000000001 -0.00015000000000000012
22 2 4.62235 5.99705 2.7692
23 2 2.5144499999999996 3.7063 4.3607000000000005
24 2 2.6071 0.21049999999999996 4.991549999999999
25 2 0.46575000000000005 1.29085 0.00445
26 2 0.18539999999999998 1.8673499999999996 0.8621500000000001
27 2 5.81835 4.3210999999999995 2.3295500000000002
28 2 1.41065 3.2180999999999997 5.716900000000001
29 2 4.625749999999999 0.29435 1.6265500000000004
30 2 0.77135 3.36615 3.26335
31 2 2.5296000000000003 3.9386 3.9755000000000003
32 2 0.5166499999999999 4.8342 0.35135
33 2 0.2637 3.2118500000000005 2.3953999999999995
34 2 5.081449999999999 5.7532000000000005 3.1092
35 2 4.2044500000000005 4.14135 1.5885
36 2 3.0686 5.8967 5.29855
37 2 3.7761999999999993 1.38285 1.7690000000000001
38 2 4.8381 5.95845 0.1832
39 2 1.2300499999999999 2.2254000000000005 3.3994499999999994
40 2 2.44205 3.5279 3.1450000000000005
41 2 4.569999999999999 1.47405 1.9678
42 2 3.7249499999999998 4.829949999999999 1.2945499999999999
43 2 4.3402 2.3244499999999997 0.7216500000000001
44 2 2.9452 0.7898 0.7946500000000001
45 2 0.5843499999999999 3.1854 2.68865
46 2 2.43935 2.3131 1.0025
47 2 1.23845 3.5025000000000004 0.7969
48 2 4.2814 2.18915 5.04095
49 2 3.6933 4.8658 3.2348
50 2 0.39055 3.76605 1.0098
51 2 5.693849999999999 5.4012 1.6984
52 2 2.2067500000000004 2.1180499999999998 5.7829999999999995
53 2 1.545 1.63585 5.3677
54 2 1.1466999999999998 5.9289 0.18035
55 2 3.0655500000000004 2.4342499999999996 4.74345
56 2 5.588 3.5499 4.30195
57 2 1.7816499999999997 4.96445 6.135800000000001
58 2 1.95225 4.30605 1.6004999999999998
59 2 0.19895000000000002 1.16575 3.4616499999999997
60 2 3.31875 2.78205 4.7839
61 2 0.8262499999999999 4.2493 3.5213499999999995
62 2 5.8877500000000005 3.25655 1.23655
63 2 5.170599999999999 5.62555 1.2967
64 2 3.8688000000000002 4.87955 4.5195
65 2 1.10765 4.38255 3.89645
66 2 1.56335 0.8393999999999998 0.3617
67 2 4.53795 3.3207 1.36165
68 2 5.43125 3.8906499999999995 5.1133999999999995
69 2 6.06855 2.3983 6.042299999999999
70 2 0.03609999999999999 0.3995 2.72455
71 2 0.7247 5.949050000000001 6.0508999999999995
72 2 5.346299999999999 4.2881 2.4841499999999996
73 2 1.62835 5.211900000000001 4.4849499999999995
74 2 0.9455 0.7916000000000001 6.157100000000001
75 2 2.2633 3.31815 4.641399999999999
76 2 1.64055 5.9724 5.0235
77 2 0.13935000000000003 4.38365 4.3745
78 2 0.14295 0.7158 3.48515
79 2 2.39825 5.540900000000001 6.1777999999999995
80 2 4.0927999999999995 2.8064 0.7093499999999999
81 2 2.81595 1.7754999999999999 4.864099999999999
82 2 5.6321 1.24455 1.16455
83 2 0.6487 2.5026 2.25475
84 2 5.332800000000001 2.06925 5.7517499999999995
85 2 2.9827000000000004 3.3734500000000005 5.50015
86 2 1.6762000000000001 2.0773 6.156899999999999
87 2 3.4951999999999996 5.09505 5.8155
88 2 4.4712499999999995 4.345350000000001 1.7096000000000005
89 2 3.9933499999999995 5.4771 0.74425
90 2 5.4905 6.25165 0.3376
91 2 3.9563 0.46025 1.6317499999999998
92 2 3.62465 5.432549999999999 4.191049999999999
93 2 4.81745 0.12194999999999998 4.36485
94 2 3.6996500000000005 3.81415 2.3207000000000004
95 2 1.7333000000000003 5.67545 1.61665
96 2 3.0046000000000004 4.459300000000001 1.19485
97 2 4.27475 2.6691 5.172899999999999
98 2 2.5966 3.63915 2.54475
99 2 1.37385 0.6596 2.5393
100 2 4.12645 6.1414 5.27895
101 2 1.1275499999999998 3.6946000000000003 1.2861500000000001
102 2 4.2416 2.66835 4.2348
103 2 2.6542000000000003 4.70015 1.5135999999999998
104 2 1.13815 5.021299999999999 1.4953499999999997
105 2 5.142549999999999 2.71645 1.4624000000000001
106 2 3.01415 5.1498 5.8819
107 2 3.1133499999999996 0.9037499999999999 3.7445
108 2 2.95195 5.375 3.1651
109 2 1.61335 1.44015 4.601000000000001
110 2 4.15705 2.2408499999999996 4.79055
111 2 1.17545 4.510250000000001 2.5553999999999997
112 2 1.33895 0.49750000000000005 0.21304999999999996
113 2 5.51675 1.3862499999999998 3.7743500000000005
114 2 5.2152 4.6855 3.1414999999999997
115 2 0.55825 0.65075 3.3695999999999997
116 2 1.9453 5.07855 4.1517
117 2 0.23914999999999997 2.0858 1.72485
118 2 1.30105 5.6607 1.9357499999999999
119 2 0.29425 2.4669 2.3741499999999998
120 2 4.9203 0.5310499999999999 2.8335
121 2 1.8156499999999998 3.5524 3.2068999999999996
122 2 3.0672500000000005 1.7109 3.1106500000000006
123 2 5.56875 4.7555000000000005 6.236700000000001
124 2 6.0632 4.645549999999999 5.3946
125 2 2.9547499999999998 2.46195 6.0493
126 2 2.0215500000000004 4.401449999999999 2.99795
127 2 1.0221500000000001 0.8076500000000001 0.64585
128 2 0.5704999999999999 4.815099999999999 6.23875
129 2 3.6582500000000002 1.5093999999999999 5.3148
130 2 3.5259500000000004 1.1775 3.3966499999999997
131 2 0.9030000000000001 1.6003999999999998 2.7938
132 2 2.62425 1.1794 6.11765
133 2 3.7778499999999995 4.1991 0.7497499999999999
134 2 5.66515 4.11875 4.7974
135 2 3.91935 5.917199999999999 4.8361
136 2 3.4091 1.44525 3.837500000000001
137 2 4.9244 0.8173499999999999 5.6608
138 2 0.8408 1.8935 2.42835
139 2 0.7999 3.9766000000000004 6.127599999999999
140 2 1.2387000000000001 3.5479 5.490550000000001
141 2 5.51935 3.25835 3.1414999999999997
142 2 1.3916499999999998 3.7024 0.49155
143 2 6.08235 0.9591500000000002 1.8156999999999996
144 2 0.42885 6.00755 2.5574500000000002
145 2 0.33924999999999994 4.6516 6.196599999999999
146 2 0.14909999999999998 2.3301 6.0561
147 2 5.444999999999999 2.2800499999999997 0.12645
148 2 4.77425 4.405799999999999 1.7499000000000002
149 2 4.3053 4.6449 4.2386
150 2 3.7423 3.3582500000000004 3.1922
151 2 0.48245000000000005 2.17925 1.7691500000000002
152 2 4.121 4.1341 2.0601
153 2 4.57455 1.6062 5.740599999999999
154 2 0.6182000000000001 1.1935 3.6086000000000005
155 2 0.36755 2.75185 4.1243
156 2 0.189 3.2586500000000003 2.1348499999999997
157 2 2.4048999999999996 5.816249999999999 0.30334999999999995
158 2 4.246050000000001 2.3374499999999996 1.3887500000000002
159 2 2.5297499999999995 0.36145 3.1155500000000003
160 2 4.9398 1.2915499999999998 2.1489000000000003
161 2 0.88575 5.8101 4.69355
162 2 5.91105 1.4900499999999999 4.606599999999999
163 2 1.9876500000000004 5.6919 0.32885
164 2 3.9892000000000003 3.5181999999999993 5.73525
165 2 0.55335 0.9097000000000002 6.238750000000001
166 2 1.6862000000000001 6.2734499999999995 0.028949999999999997
167 2 0.0819 1.69685 2.5723999999999996
168 2 3.80615 6.04125 3.8531
169 2 1.06895 0.0004 6.0817
170 2 4.977399999999999 3.31135 1.8436499999999998
171 2 5.37955 1.7089500000000002 2.64555
172 2 6.1983 4.47425 4.5717
173 2 0.49675 2.9358 0.51265
174 2 2.1003000000000003 5.258650000000001 1.8265999999999998
175 2 5.331 4.891649999999999 6.26835
176 2 5.89635 2.3178 1.2613499999999997
177 2 3.6856500000000003 2.2582500000000003 3.6088999999999998
178 2 0.9290500000000002 6.082749999999999 4.017099999999999
179 2 1.81495 2.0625 0.8581999999999999
180 2 5.94615 4.4084 3.6652
181 2 4.3222499999999995 0.6155999999999999 4.2204500000000005
182 2 0.41484999999999994 1.8448499999999999 1.2207500000000002
183 2 4.4869 0.22474999999999995 4.7672
184 2 1.9512999999999998 2.25475 1.9540499999999998
185 2 2.96075 4.0704 0.47585
186 2 4.276300000000001 3.74815 2.6483499999999998
187 2 6.0739 2.29605 4.06515
188 2 2.6351500000000003 6.07215 4.873800000000001
189 2 3.8914500000000003 2.07815 1.9909499999999998
190 2 1.6961499999999998 5.604550000000001 3.03175
191 2 3.0515 1.03195 5.423
192 2 1.1455499999999998 1.74115 1.6548500000000002
193 2 4.30955 5.1617 2.4316000000000004
194 2 1.8366 4.71585 4.47705
195 2 4.9713 3.6233000000000004 0.15885
196 2 4.539599999999999 0.9174 6.03465
197 2 0.22845 0.7292500000000001 0.7932000000000001
198 2 2.466 0.4988 0.22805
199 2 6.0451999999999995 4.86295 6.12445
200 2 3.8909999999999996 3.1727999999999996 2.75015
201 2 6.25255 4.0383 3.1582
202 2 0.3217 0.3484999999999999 0.5618500000000001
203 2 2.10275 0.5699 5.980500000000001
204 2 0.47494999999999993 5.5521 4.0752500000000005
205 2 5.73505 5.9636499999999995 0.41609999999999997
206 2 3.6506999999999996 3.7841 0.7340500000000001
207 2 2.5998500000000004 1.8651 1.8144500000000001
208 2 5.49765 3.44995 2.74545
209 2 5.7477 2.54335 0.18115
210 2 2.8270500000000003 0.6152 0.639
211 2 5.0656 3.8724499999999997 2.9752
212 2 2.6272500000000005 6.04455 4.61795
213 2 5.6716 0.19615 5.253550000000001
214 2 0.3036 3.1448499999999995 0.8965500000000001
215 2 3.3705000000000007 1.0987 0.16060000000000002
216 2 3.0994 6.0921 0.6656500000000001
217 2 6.086450000000001 5.4474 3.9573499999999995
218 2 1.1215000000000002 1.2786 2.7759
219 2 3.5332500000000002 2.3028999999999997 4.3209
220 2 1.17245 0.517 5.677999999999999
221 2 1.9163999999999999 1.73625 3.28215
222 2 5.05975 6.262449999999999 4.4357
223 2 4.43905 2.54985 2.4522
224 2 1.7927 0.28105 6.138199999999999
225 2 0.15339999999999998 0.3641 3.9116999999999997
226 2 2.86555 0.6717500000000001 0.060649999999999996
227 2 1.3977 4.306699999999999 2.2176
228 2 0.25460000000000005 3.6292 5.83875
229 2 2.411 3.7485 0.5306500000000001
230 2 2.1317000000000004 1.8066499999999999 6.243799999999999
231 2 2.5333999999999994 5.0729999999999995 3.5223
232 2 0.37425 5.493 5.57695
233 2 5.19485 3.4974499999999993 1.38685
234 2 5.16925 4.724100000000001 6.11885
235 2 1.3145000000000002 2.8385000000000007 0.5559000000000001
236 2 1.62745 0.8433499999999998 1.5062
237 2 4.084100000000001 0.8543499999999999 2.71125
238 2 4.91755 6.0613 3.35895
239 2 3.00195 2.77765 5.0215
240 2 1.516 4.9584 2.78235
241 2 1.10815 0.303 5.003100000000001
242 2 1.0671000000000002 5.96565 5.633699999999999
243 2 3.4695 1.486 4.9296999999999995
244 2 4.3530500000000005 3.4698 5.938599999999999
245 2 4.97295 3.12705 2.199
246 2 1.3747 5.58045 0.6970500000000001
247 2 1.0107999999999997 5.4366 2.95275
248 2 3.2606499999999996 4.67 5.265899999999999
249 2 3.239 1.968 0.01075
250 2 1.4571 4.2844 5.8715
251 2 4.7043 5.7434 3.3638999999999997
252 2 4.35445 0.4831 1.3364
253 2 5.491850000000001 1.7801500000000001 3.9903499999999994
254 2 0.0071 5.68645 5.93515
255 2 3.4275999999999995 2.1509 1.73175
256 2 3.1643499999999998 1.82605 5.63375
257 2 0.47669999999999996 5.625349999999999 2.22595
258 2 0.74655 3.23505 3.6934000000000005
259 2 3.97545 4.54585 5.68225
260 2 5.0026 3.5208 0.39615000000000006
261 2 0.61065 2.9758000000000004 0.019300000000000005
262 2 0.0792 1.4322 0.177
263 2 3.11495 4.9239500000000005 5.79535
264 2 5.7719000000000005 4.515199999999999 1.2222
265 2 3.50495 3.52115 4.565900000000001
266 2 1.0903 3.59795 2.7053499999999997
267 2 1.8138 1.05375 4.0911
268 2 5.70135 2.0431500000000002 4.4353
269 2 0.32894999999999996 5.548900000000001 5.83095
270 2 4.89175 0.8488999999999999 4.52285
271 2 0.79495 5.73385 4.936249999999999
272 2 6.1488 5.82835 0.0247
273 2 1.6427999999999998 2.4126000000000003 5.26785
274 2 5.293899999999999 6.15605 2.0259500000000004
275 2 4.1606 6.234100000000001 3.65435
276 2 1.6952500000000001 2.71275 3.18255
277 2 2.1166500000000004 0.27575 4.424449999999999
278 2 2.02265 3.05805 1.31955
279 2 2.56845 1.7259499999999999 1.6099
280 2 3.89515 5.942849999999999 2.52895
281 2 4.432300000000001 3.14195 3.5345
282 2 0.006049999999999998 5.920450000000001 4.7391
283 2 5.82155 5.583600000000001 2.1356
284 2 2.48595 3.0566999999999998 3.34415
285 2 3.13895 1.7515999999999998 0.5657500000000001
286 2 3.1589 2.07785 5.51265
287 2 3.2969500000000003 1.27465 0.35805000000000003
288 2 6.1944 2.0713000000000004 4.004949999999999
289 2 3.703849999999999 1.57575 3.6189999999999998
290 2 0.14679999999999999 3.4333 5.2053
291 2 2.835 4.1865499999999995 1.8459000000000003
292 2 1.0804500000000004 5.2969 5.596750000000001
293 2 5.53035 4.87865 4.75145
294 2 4.578449999999999 1.3349 2.3685
295 2 0.9127000000000001 0.33055 4.3624
296 2 0.0382 2.7012499999999995 0.8060500000000002
297 2 5.132150000000001 5.7353000000000005 2.83525
298 2 4.733 6.1804 0.3101
299 2 3.2331500000000006 0.9672000000000001 1.7468999999999997
300 2 5.040049999999999 0.97425 4.853700000000001
301 2 6.07315 3.628849999999999 3.4407000000000005
302 2 4.92605 4.5276499999999995 0.33590000000000003
303 2 4.2235 4.533399999999999 0.14279999999999998
304 2 4.1487 1.3527 5.751250000000001
305 2 4.4916 3.97995 4.2716
306 2 3.3929 0.01945 1.2771499999999998
307 2 5.304799999999999 5.27355 3.6129
308 2 5.3395 2.60435 4.806300000000001
309 2 4.0253499999999995 4.500500000000001 6.246049999999999
310 2 2.66275 2.6942499999999994 5.4105
311 2 2.1606 1.2969000000000002 0.5366000000000001
312 2 3.77065 3.6936 1.15885
313 2 4.635199999999999 2.07685 0.4180499999999999
314 2 2.0438 2.6753 2.96865
315 2 0.06639999999999999 6.10125 2.4665000000000004
316 2 4.20895 3.4638 4.7650999999999994
317 2 6.05365 5.4 2.30445
318 2 5.38785 1.2885499999999999 3.0006
319 2 2.59525 4.168900000000001 5.710800000000001
320 2 0.72215 1.9856000000000003 5.99785
321 2 4.921850000000001 0.76425 1.8642000000000003
322 2 1.3171 4.793850000000001 0.25835
323 2 0.07125 0.9750499999999999 1.7494
324 2 4.1995 1.46385 0.2678
325 2 5.94465 0.77025 3.1513
326 2 3.8139499999999997 1.8639 6.0108500000000005
327 2 4.9113500000000005 1.3217 0.95035
328 2 5.398149999999999 3.7409 0.8345499999999999
329 2 5.4474 5.415649999999999 6.21545
330 2 2.2197 2.7376499999999995 0.84655
331 2 0.78915 1.41015 2.6243499999999997
332 2 1.8712000000000004 4.18655 4.158650000000001
333 2 2.46535 4.98725 1.2601999999999998
334 2 3.5631 2.0803000000000003 2.20925
335 2 1.04755 5.45415 0.0833
336 2 4.735899999999999 4.661 4.33005
337 2 5.48385 0.0401 5.3829
338 2 3.1425 3.9955999999999996 5.27865
339 2 0.40070000000000006 5.68375 4.88555
340 2 4.142600000000001 1.8498 5.29615
341 2 2.1910499999999997 0.4716 0.28900000000000003
342 2 5.004849999999999 6.183 2.0353
343 2 4.18695 1.8866 2.2870999999999997
344 2 2.0018000000000002 3.32795 5.456149999999999
345 2 0.9654499999999999 1.38495 1.9123499999999996
346 2 4.79585 1.0986 1.0023
347 2 0.8346499999999999 2.4365 6.021599999999999
348 2 5.0714500000000005 3.3232500000000003 4.36485
349 2 2.0062499999999996 0.048650000000000006 3.11725
350 2 1.0465 4.1793000000000005 5.74015
351 2 1.85165 5.624499999999999 1.38865
352 2 2.07935 0.6706000000000001 3.5495999999999994
353 2 1.8229 3.09575 4.234050000000001
354 2 4.11655 0.1347 4.563
355 2 1.4707500000000002 1.5841999999999998 2.41265
356 2 4.38365 3.8450499999999996 5.92225
357 2 6.0390999999999995 5.781149999999999 3.48825
358 2 3.7215500000000006 2.8758 4.8924
359 2 5.23985 5.99535 5.5798000000000005
360 2 4.6389000000000005 0.69365 2.60385
361 2 3.97825 1.62575 5.64
362 2 2.1125999999999996 2.0871500000000003 3.8206499999999997
363 2 3.6470999999999996 3.8808 5.12285
364 2 5.30655 0.64135 4.69195
365 2 1.85995 2.0329 4.526199999999999
366 2 1.0585 0.54655 1.4244999999999999
367 2 1.02705 1.6408999999999998 5.9819
368 2 4.4242 5.28435 0.6858000000000001
369 2 5.808000000000001 4.504949999999999 4.77875
370 2 6.0215000000000005 3.1535 2.88435
371 2 3.9374000000000002 5.943699999999999 3.02925
372 2 1.7795999999999998 1.0626000000000002 2.3026500000000003
373 2 1.6404999999999998 3.3544000000000005 3.5780000000000003
374 2 3.9537499999999994 3.9006999999999996 4.56145
375 2 0.84365 5.3515999999999995 5.4495000000000005
376 2 4.944850000000001 0.16565000000000002 2.10175
377 2 0.5316000000000001 2.1254 4.8854
378 2 2.44635 0.40435 3.9597500000000005
379 2 0.14319999999999997 1.4893 1.9308
380 2 3.5557000000000003 1.8399 3.3933999999999997
381 2 2.3158 3.446 1.73725
382 2 5.63605 1.6079999999999999 4.615950000000001
383 2 3.1729000000000003 2.04325 4.490399999999999
384 2 5.79485 3.00415 0.65115
385 2 3.377 4.969 0.5252
386 2 3.5375500000000004 5.17035 0.1369
387 2 1.5103499999999999 4.521599999999999 3.96325
388 2 0.1819 4.27975 2.6062
389 2 2.92415 2.12075 3.91815
390 2 0.43339999999999995 2.1532999999999998 2.8101000000000003
391 2 5.0868 1.62865 2.8076
392 2 0.7855 3.2051499999999997 5.8119
393 2 5.2221 5.54685 6.27055
394 2 5.06865 4.31315 5.28795
395 2 3.8726999999999996 5.43325 0.1093
396 2 1.6515499999999999 0.5326000000000001 3.8018500000000004
397 2 0.08904999999999999 2.0803000000000003 3.80595
398 2 6.0627 6.0588 4.716749999999999
399 2 3.4515000000000002 3.97 3.10695
400 2 4.76065 1.0627 5.972950000000001
401 2 5.76855 6.19405 5.7097
402 2 4.3664 1.7018499999999999 2.27655
403 2 0.7217 2.96535 0.85585
404 2 2.3655 3.08245 4.3488
405 2 2.9498499999999996 2.7573999999999996 4.107049999999999
406 2 4.4644 1.02575 0.7712000000000001
407 2 3.5471500000000007 0.7801 3.4795000000000003
408 2 1.1983000000000001 1.8839499999999998 4.12255
409 2 2.44465 0.67755 0.4271000000000001
410 2 4.36845 1.6757000000000002 6.17075
411 2 5.8605 3.0766999999999998 3.7150000000000007
412 2 3.6042499999999995 1.6247 0.4202
413 2 0.557 0.9481499999999998 1.501
414 2 0.5786499999999999 4.2741 2.4589
415 2 5.5601 5.2105999999999995 1.3187000000000002
416 2 2.47955 5.1658 1.0643500000000001
417 2 1.1975500000000001 3.5101500000000003 1.0746
418 2 2.3236000000000003 1.66335 5.77575
419 2 0.028450000000000003 6.1396 0.34524999999999995
420 2 2.02855 1.78145 0.9475499999999999
421 2 4.7133 6.0491 2.4201
422 2 5.7223500000000005 3.59625 1.00945
423 2 5.8545 0.49124999999999996 2.73225
424 2 6.06155 6.02585 3.8933999999999997
425 2 1.9263500000000005 2.0846999999999998 2.5928999999999998
426 2 1.60335 4.752350000000001 6.07845
427 2 4.9595 5.8937 4.4399500000000005
428 2 1.36415 4.46815 0.0049
429 2 4.2386 4.3534500000000005 0.35235
430 2 2.6643499999999998 3.80455 1.8834
431 2 3.5912000000000006 5.18015 2.1204499999999995
432 2 6.10865 1.1835 3.2112499999999997
433 2 5.011150000000001 0.48865 0.7163999999999999
434 2 2.2056999999999998 5.501600000000001 1.2205
435 2 1.9128 6.25955 0.9257499999999999
436 2 6.2065 2.07735 3.21825
437 2 5.8766 3.0320000000000005 4.4052
438 2 3.0126 3.15085 0.32415
439 2 3.4584 5.0064 3.14025
440 2 5.8987 4.87275 3.9029499999999997
441 2 2.66255 1.33365 1.6366
442 2 2.0715 2.0796 0.22669999999999998
443 2 0.0561 1.0642999999999998 1.4812
444 2 0.33705 5.843999999999999 3.7730999999999995
445 2 0.72505 2.67335 2.4406999999999996
446 2 5.077800000000001 1.5333 0.25695
447 2 2.825 0.50975 0.89365
448 2 0.6096000000000001 3.1111 5.3675
449 2 2.2175000000000002 0.44580000000000003 3.0622
450 2 4.821 1.5045000000000002 5.24935
451 2 1.8474499999999998 3.01865 3.9029499999999997
452 2 0.23399999999999999 6.23875 3.1973
453 2 3.5654000000000003 1.02615 2.9600999999999997
454 2 1.7909 1.2574999999999998 2.5755500000000002
455 2 1.6990000000000003 1.0288500000000003 5.6086
456 2 3.8596500000000007 1.8834499999999998 0.98805
457 2 3.13705 0.37675 3.94995
458 2 2.85175 2.2947 2.6091000000000006
459 2 2.154 2.05415 1.9573
460 2 0.23735000000000003 0.43145 5.6607
461 2 3.0546 2.2715 4.956799999999999
462 2 0.4878 5.16935 4.8499
463 2 1.7607 0.784 4.361000000000001
464 2 2.6846 3.2834499999999998 4.78505
465 2 2.9196 3.2899499999999997 2.84375
466 2 3.24305 0.5417500000000001 3.5787500000000003
467 2 0.12175 2.9231499999999997 2.87695
468 2 5.37855 2.1394499999999996 2.4285500000000004
469 2 5.919 5.949 1.9685
470 2 2.1675000000000004 3.5413500000000004 3.1774
471 2 3.24105 5.6305 4.4347
472 2 2.2727 4.86785 4.65865
473 2 3.902399999999999 5.9086 1.1337499999999998
474 2 3.5482 0.9196500000000001 0.3036
475 2 1.8853499999999996 5.9853499999999995 2.8028500000000003
476 2 1.7572999999999996 0.9907 2.8421
477 2 4.801350000000001 0.33890000000000003 0.36534999999999995
478 2 4.6589 6.062 4.71395
479 2 0.7306 2.3217499999999998 0.7144999999999999
480 2 5.0798499999999995 5.299999999999999 6.265799999999999
481 2 0.41670000000000007 4.196249999999999 2.67335
482 2 5.6276 2.03195 2.7527999999999997
483 2 0.013599999999999998 2.08775 0.26549999999999996
484 2 5.14165 0.23374999999999999 5.240450000000001
485 2 5.94465 5.00785 1.25325
486 2 5.33445 5.68145 1.1007000000000002
487 2 2.6946000000000003 4.719550000000001 0.75065
488 2 3.31695 2.6409 6.17355
489 2 4.62975 4.3514 0.8676999999999999
490 2 2.6814 6.1603 0.17325000000000002
491 2 4.776649999999999 5.025599999999999 0.9848500000000001
492 2 1.1608999999999998 0.86175 0.8721
493 2 4.78095 4.6451 1.8954999999999997
494 2 5.984450000000001 2.9126000000000003 5.62965
495 2 5.1606 4.2006 0.37485
496 2 3.9878 2.1614999999999998 0.6877500000000001
497 2 6.2356 0.26644999999999996 3.54295
498 2 3.74345 0.68665 5.45445
499 2 2.9782499999999996 2.9133000000000004 6.104850000000001
500 2 4.4706 4.47025 6.006399999999999
501 2 4.0287 2.4787000000000003 0.37550000000000006
502 2 1.8660999999999999 6.2069 1.7798499999999997
503 2 4.90315 4.620850000000001 1.0538999999999998
504 2 3.89745 2.3558999999999997 0.85775
505 2 4.89565 2.2218000000000004 0.83825
506 2 0.5051 5.055149999999999 5.848400000000001
507 2 2.6790499999999997 1.4134 2.7466
508 2 2.7730500000000005 2.1632000000000002 4.72205
509 2 3.5420499999999997 2.2207 3.38745
510 2 1.71665 5.97205 3.31635
511 2 4.7067 5.1229499999999994 2.63385
512 2 2.92325 0.0644 3.6406
513 2 2.28575 6.0158000000000005 5.33055
514 2 4.005599999999999 3.1811499999999997 1.7108500000000002
515 2 4.1335999999999995 4.751099999999999 3.2043500000000003
516 2 1.4148 2.2058 3.8035999999999994
517 2 0.04975 2.2594 2.8994
518 2 1.6613499999999999 5.127449999999999 1.8093999999999997
519 2 3.2525 2.8759 1.50275
520 2 2.7512999999999996 2.4330499999999997 2.8083
521 2 4.945099999999999 5.7569 5.78955
522 2 4.4153 5.3218499999999995 5.734400000000001
523 2 3.2704 4.00605 4.19315
524 2 2.08575 6.08505 0.5412
525 2 -0.0033499999999999997 2.6951 2.2235500000000004
526 2 5.6196 4.06385 5.94595
527 2 3.6515 5.7631499999999996 2.2211000000000003
528 2 5.39585 4.500850000000001 0.22679999999999997
529 2 1.1438 5.523749999999999 2.2354999999999996
530 2 5.9334999999999996 2.6071 4.8043499999999995
531 2 3.3760999999999997 1.2617999999999998 6.2081
532 2 3.9467000000000008 1.0532999999999997 5.9845500000000005
533 2 3.9324 3.44855 3.3566499999999997
534 2 3.86625 2.80945 1.93825
535 2 2.39755 0.4902 4.20655
536 2 0.23080000000000003 4.386950000000001 4.881749999999999
537 2 2.5124999999999997 4.0958 0.55425
538 2 5.490899999999999 0.6026499999999999 0.9037499999999999
539 2 1.6637999999999997 4.466 2.7813
540 2 2.53305 2.1157 4.12035
541 2 1.8316500000000002 0.14294999999999997 2.4111
542 2 3.3533 0.9807499999999999 3.8472999999999993
543 2 3.0744999999999996 2.5317499999999997 3.3771499999999994
544 2 5.290049999999999 3.71835 2.98625
545 2 3.88895 2.65795 3.7936
546 2 1.8272 5.82685 4.654249999999999
547 2 0.3211 3.3622500000000004 1.89915
548 2 2.75775 4.4824 5.87615
549 2 1.2604499999999998 2.0086999999999997 3.22245
550 2 3.7643499999999994 4.6217500000000005 4.51315
551 2 5.1822 0.08579999999999999 3.4959499999999997
552 2 1.9156999999999997 6.202500000000001 4.73465
553 2 5.753500000000001 5.62345 5.272699999999999
554 2 3.9136999999999995 5.23145 1.2695
555 2 0.4446 3.8055000000000008 3.6922500000000005
556 2 2.6658 1.5362500000000001 2.0707
557 2 0.7318 1.2723999999999998 0.7253999999999999
558 2 1.7909 2.96155 1.07945
559 2 4.9998 3.6435000000000004 5.8732
560 2 4.4626 0.32530000000000003 5.03245
561 2 0.3309 1.13355 3.2296
562 2 4.094049999999999 1.24225 1.4955500000000002
563 2 1.5424499999999999 2.8351499999999996 5.592650000000001
564 2 2.7527500000000003 0.76535 1.92605
565 2 1.54785 3.1498 3.4086999999999996
566 2 1.8163 0.34215000000000007 3.757399999999999
567 2 5.8733 4.1789 5.6732499999999995
568 2 3.6831999999999994 0.7498499999999999 4.0344
569 2 6.232899999999999 2.3992500000000003 0.54125
570 2 0.6227499999999999 3.6871 0.2919999999999999
571 2 0.6728 2.36085 4.796950000000001
572 2 2.12055 2.9406499999999998 0.68985
573 2 4.705450000000001 2.2478000000000002 4.612150000000001
574 2 2.55825 0.8019999999999999 1.3557000000000001
575 2 5.2582 1.3097499999999997 0.69465
576 2 5.3241 0.9574499999999999 1.40925
577 2 1.0783 3.15865 4.435350000000001
578 2 2.4647499999999996 5.50765 3.34415
579 2 5.4296999999999995 1.72125 5.0562
580 2 6.069750000000001 0.9892 0.3238
581 2 3.2225499999999996 1.025 5.783949999999999
582 2 0.6847500000000001 4.6914 3.26935
583 2 1.6075500000000003 5.918850000000001 4.327800000000001
584 2 5.6704 1.5199000000000003 1.12545
585 2 6.176699999999999 0.8686999999999999 4.1087
586 2 2.7506000000000004 3.3457 0.10495000000000002
587 2 2.1061 3.553400000000001 5.5385
588 2 2.27025 5.159649999999999 3.5577999999999994
589 2 3.07455 1.3932 5.866999999999999
590 2 5.7279 5.6281 4.41855
591 2 2.6388000000000003 5.320449999999999 3.79945
592 2 0.6771499999999999 3.5417500000000004 5.0611999999999995
593 2 1.5290000000000001 2.1453999999999995 5.0192499999999995
594 2 4.931000000000001 2.7332500000000004 0.0504
595 2 4.6526499999999995 2.21375 4.112
596 2 3.4782500000000005 3.2243000000000004 1.7384
597 2 5.503349999999999 2.25845 5.652749999999999
598 2 1.3267000000000002 0.7676999999999999 6.157449999999999
599 2 0.9344500000000002 0.1513 2.0959499999999998
600 2 4.021800000000001 2.8162499999999997 1.5784500000000001
601 2 5.4540500000000005 1.5413000000000001 5.7802
602 2 0.8053000000000001 1.09855 3.1885000000000003
603 2 2.7343 2.7987499999999996 6.09475
604 2 1.4636 5.997400000000001 3.6844499999999996
605 2 1.74845 4.79355 2.04435
606 2 0.17994999999999997 2.5393999999999997 2.6185
607 2 4.66615 3.8554500000000003 2.53165
608 2 5.662249999999999 2.5468 0.98845
609 2 5.9291 4.4365 5.2286
610 2 0.98735 1.24285 0.77125
611 2 4.335400000000001 1.2329500000000002 5.89475
612 2 2.7944500000000003 3.3699999999999997 4.3450999999999995
613 2 1.1439 1.49925 4.5277
614 2 4.7003 4.9686 0.1937
615 2 1.8398999999999996 5.80635 4.386850000000001
616 2 5.1633 4.100700000000001 2.8485
617 2 3.93375 3.5185000000000004 3.86595
618 2 2.7567499999999994 3.0012 1.1663999999999999
619 2 5.62855 0.93635 3.26705
620 2 2.6407499999999997 0.2251 5.668699999999999
621 2 3.1607000000000003 4.31375 1.35925
622 2 0.0556 2.9478500000000003 1.8491
623 2 4.023999999999999 5.9158 2.0691499999999996
624 2 1.5739 5.4418 4.3526
625 2 4.5642 2.8124000000000002 5.383850000000001
626 2 3.8150000000000004 0.4969 6.0842
627 2 1.06955 5.8261 1.2187
628 2 4.0083 2.3435 4.362150000000001
629 2 4.68945 0.10685 1.4311500000000001
630 2 2.23715 4.8605 4.37335
631 2 1.8531000000000002 5.363999999999999 1.0095999999999998
632 2 3.5698 5.326250000000001 4.6771
633 2 2.4393000000000002 0.11115 1.0702000000000003
634 2 1.5939 4.611800000000001 0.023549999999999998
635 2 3.3352999999999993 1.6188000000000002 2.75455
636 2 2.7154499999999997 2.8283 4.201649999999999
637 2 1.5365499999999999 6.1979500000000005 0.83415
638 2 4.1881 4.32375 5.460700000000001
639 2 1.8635000000000002 5.520950000000001 0.78585
640 2 5.06105 2.8643000000000005 2.95205
641 2 1.2831 2.0595 1.1759499999999998
642 2 1.4591499999999997 0.31134999999999996 1.01185
643 2 6.0021 2.392 5.586400000000001
644 2 1.5625000000000002 4.52275 1.61145
645 2 4.0571 6.06695 3.2398499999999997
646 2 1.05885 2.63465 0.8226000000000001
647 2 3.2977499999999997 3.3640999999999996 4.54175
648 2 3.7152000000000003 3.8734500000000005 5.570649999999999
649 2 5.6532 0.9979500000000001 0.23994999999999997
650 2 3.01315 0.46959999999999996 3.7090000000000005
651 2 6.204700000000001 0.56355 0.258
652 2 2.21535 3.52155 0.81885
653 2 1.9038499999999996 3.9625 5.9627
654 2 2.9247500000000004 1.30655 4.78665
655 2 0.5572000000000001 5.0088 4.3434
656 2 5.1588 0.68835 6.004700000000001
657 2 1.6435 5.1487 3.8005000000000004
658 2 2.9634500000000004 0.04845000000000001 1.59105
659 2 5.931 1.7299499999999999 4.889649999999999
660 2 2.3968 0.0768 1.7965
661 2 2.3208 5.0535000000000005 5.5305
662 2 2.2127 2.7163 2.1402999999999994
663 2 1.28275 0.48945000000000005 0.92935
664 2 2.2093999999999996 1.04835 3.4147499999999993
665 2 0.6439 1.8036 3.7543999999999995
666 2 3.7069999999999994 0.734 3.26195
667 2 1.9218499999999998 1.2264000000000002 1.32785
668 2 0.00855 1.01085 5.741650000000001
669 2 5.75075 3.86605 1.00455
670 2 3.91745 4.7912 0.9320999999999999
671 2 4.620299999999999 3.1292 3.767549999999999
672 2 0.08579999999999999 6.0987 5.3908
673 2 5.3427999999999995 5.656649999999999 1.91785
674 2 4.945549999999999 5.050099999999999 1.9812999999999998
675 2 1.2413500000000002 6.14805 6.2597499999999995
676 2 3.4900000000000007 2.01305 1.21975
677 2 0.10325 5.64785 1.31945
678 2 2.1342500000000006 1.6796000000000002 3.8531999999999997
679 2 5.22585 4.90335 0.25725000000000003
680 2 1.4945499999999998 5.2658499999999995 4.71485
681 2 0.19365000000000002 4.10055 2.98435
682 2 2.9747500000000002 4.509100000000001 4.991199999999999
683 2 5.6783 2.4648 5.560599999999999
684 2 4.9357 3.6224 4.0447999999999995
685 2 3.1226 1.435 2.9852499999999997
686 2 4.404000000000001 0.41689999999999994 3.6353999999999997
687 2 0.42805 3.9534999999999996 6.105250000000001
688 2 2.20485 0.9968999999999999 0.5061000000000001
689 2 2.6127000000000002 3.6660000000000004 1.26325
690 2 6.01525 0.12980000000000003 2.55015
691 2 0.63135 4.86025 5.99205
692 2 3.1733000000000002 5.1828 1.1467999999999998
693 2 2.76065 2.2382 4.102650000000001