ITEM: TIMESTEP
1
ITEM: NUMBER OF ATOMS
8192
ITEM: BOX BOUNDS pp pp pp
0.0000000000000000e+00 6.27367
0.0000000000000000e+00 6.27367
0.0000000000000000e+00 6.27367
ITEM: ATOMS id type x y z
1 2 1.1947 3.58825 0.2975
2 2 4.428050000000001 0.5135500000000001 2.99815
3 2 3.8733000000000004 5.7115 6.203149999999999
4 2 1.7094999999999998 4.9988 2.5286
5 2 1.0521499999999997 0.32465 1.0657
6 2 1.69225 2.74935 2.1397
7 2 4.57685 1.90145 1.26915
8 2 3.8435500000000005 3.84315 3.9902499999999996
9 2 4.822150000000001 1.39045 2.7798
10 2 1.8046 0.6413500000000001 2.25645
11 2 0.37039999999999995 4.7437000000000005 0.60125
12 2 3.7312000000000003 4.8299 1.9438499999999999
13 2 5.52365 0.5204500000000001 3.7323999999999997
14 2 0.9237499999999998 6.1259500000000005 5.1762999999999995
15 2 3.7714 0.7678 0.7105
16 2 2.8213 5.458900000000002 0.15009999999999998
17 2 3.5654000000000003 1.1965 4.3107
18 2 2.29605 1.5221500000000003 1.1025500000000001
19 2 4.861949999999999 5.0786 4.940949999999999
20 2 2.1693 4.229049999999999 4.6207
21 2 5.00715 4.18675 6.23865
22 2 4.77895 6.2039 2.4663999999999997
23 2 2.5256 3.7537000000000007 4.4087
24 2 2.7334500000000004 0.33735 5.07275
25 2 0.5016499999999999 1.30265 0.0633
26 2 0.12514999999999998 1.9039499999999996 0.8734
27 2 5.727200000000001 4.3551 2.3775000000000004
28 2 1.45965 3.2650999999999994 5.7642999999999995
29 2 4.494 6.154449999999999 2.14895
30 2 0.7982000000000001 3.32605 3.2461999999999995
31 2 2.58545 3.97905 4.0545
32 2 0.40255 4.786700000000001 0.33445
33 2 0.30069999999999997 3.2422999999999993 2.1822500000000002
34 2 4.9346499999999995 5.6674999999999995 3.60965
35 2 3.86605 4.01255 1.5749
36 2 3.1649000000000003 5.925849999999999 5.355650000000001
37 2 3.51545 1.6072 1.7832000000000001
38 2 4.82015 6.067500000000001 0.2991
39 2 1.39855 2.2001 3.4900999999999995
40 2 2.4722500000000003 3.5143 3.2272
41 2 4.2764 1.38065 1.76575
42 2 3.22285 4.6499500000000005 1.5758
43 2 4.6042000000000005 2.4166 0.86645
44 2 3.0040000000000004 0.8719999999999999 0.82135
45 2 0.58785 3.0067499999999994 2.63685
46 2 2.2922000000000002 2.22235 1.00365
47 2 1.2342999999999997 3.4765500000000005 0.8021499999999999
48 2 4.39525 2.2469 4.991300000000001
49 2 3.6347499999999995 4.728000000000001 3.1596
50 2 0.3762 3.7018999999999997 0.9601
51 2 5.63485 5.3013 1.56985
52 2 2.4724 2.0450999999999997 5.9704
53 2 1.5527000000000002 1.6263999999999998 5.42655
54 2 1.0724 6.068350000000001 0.31999999999999995
55 2 2.95645 2.57245 4.6103499999999995
56 2 5.92375 3.5399499999999997 4.3013
57 2 1.7149 5.00645 6.052449999999999
58 2 1.8541500000000002 4.9159500000000005 1.7316000000000003
59 2 0.0161 0.9662499999999999 3.2222
60 2 3.3808999999999996 2.8211 4.8729499999999994
61 2 0.80815 4.22775 3.4532499999999997
62 2 5.940199999999999 3.4131 1.6547500000000004
63 2 5.29275 5.4321 1.23845
64 2 3.9526499999999998 4.77885 4.4794
65 2 1.0481500000000001 4.349 3.9098999999999995
66 2 1.4957500000000001 0.9648999999999999 0.49665
67 2 4.45625 3.45415 1.3399
68 2 5.4691 3.95385 5.1849
69 2 6.23785 2.15775 0.05595
70 2 6.21145 0.5569000000000001 2.44565
71 2 0.5142 5.98305 6.09035
72 2 5.288550000000001 4.2810500000000005 2.50015
73 2 1.41295 5.095700000000001 4.25625
74 2 0.97645 0.8995500000000002 0.20775000000000002
75 2 2.2723500000000003 3.3131499999999994 4.8056
76 2 1.68035 6.07275 5.1156500000000005
77 2 0.041249999999999995 4.4128 4.33545
78 2 0.20620000000000002 0.6009 3.3355500000000005
79 2 2.4803500000000005 5.55945 6.12975
80 2 3.9044499999999998 2.9603 0.6382
81 2 2.7131999999999996 1.98595 4.981750000000001
82 2 5.62155 1.07565 1.20675
83 2 0.7533000000000001 2.8079 2.0846
84 2 5.12795 1.9433 5.3961999999999986
85 2 2.9383500000000007 3.4955 5.4679
86 2 1.7695 2.07055 6.2146
87 2 3.54945 5.07165 5.9342500000000005
88 2 4.38945 4.3502 1.72615
89 2 3.9478999999999997 5.4948999999999995 0.6096
90 2 5.586 0.1595 0.028200000000000003
91 2 3.972850000000001 0.3123 1.7447000000000004
92 2 3.4787500000000002 5.20045 3.8012500000000005
93 2 4.68815 0.0833 4.389349999999999
94 2 3.65115 3.8850500000000006 2.29585
95 2 1.7609499999999998 5.63705 1.45495
96 2 2.92845 4.45995 1.3611
97 2 4.465599999999999 2.75125 5.0943
98 2 2.45765 3.8326499999999997 2.624
99 2 1.25875 0.5559000000000001 2.4665
100 2 4.1257 6.164249999999999 5.327399999999999
101 2 1.1377000000000002 3.69955 1.205
102 2 4.138199999999999 2.72855 4.179800000000001
103 2 2.54405 4.6661 1.41855
104 2 1.3079500000000002 5.2536000000000005 1.3050000000000002
105 2 5.213050000000001 2.68915 1.47135
106 2 2.9108 5.08755 6.1065000000000005
107 2 3.02455 0.7989499999999999 3.7358000000000002
108 2 3.19955 5.54075 3.2965000000000004
109 2 1.5149000000000001 1.37635 4.703799999999999
110 2 4.1476500000000005 2.32125 4.888399999999999
111 2 1.166 4.384449999999999 2.5115999999999996
112 2 1.4565 0.5301 0.3319
113 2 5.3647 1.3776999999999997 3.70395
114 2 5.1048 4.7174499999999995 3.1865499999999995
115 2 0.61355 0.6009 3.2856500000000004
116 2 1.94485 5.014150000000001 4.15855
117 2 0.24299999999999997 2.0341499999999995 1.6630500000000001
118 2 1.3789 5.384500000000001 2.1116
119 2 0.5361499999999999 2.6022 2.4193000000000002
120 2 5.05725 0.6487499999999999 2.68165
121 2 1.84355 3.4847 3.1160500000000004
122 2 3.0789999999999997 1.8293499999999998 3.09625
123 2 5.586749999999999 4.7024 0.0060999999999999995
124 2 6.07475 4.676200000000001 5.1998
125 2 2.8572499999999996 2.3626500000000004 5.97765
126 2 2.0480500000000004 4.354299999999999 3.04915
127 2 0.9127000000000001 0.9158499999999998 0.5519000000000001
128 2 0.54325 4.9030000000000005 6.1325
129 2 3.3252499999999996 1.4302500000000002 5.4104
130 2 3.3644999999999996 0.8516 2.88105
131 2 0.8564499999999999 1.50905 2.746
132 2 2.54645 1.3190999999999997 5.56625
133 2 3.6770500000000004 4.0093499999999995 0.70605
134 2 5.849749999999999 4.168049999999999 4.8097
135 2 3.7569000000000004 5.9819 4.648149999999999
136 2 3.0559 1.5389 3.757599999999999
137 2 5.0013 0.79235 5.547750000000001
138 2 0.7364999999999999 1.9355999999999998 2.47755
139 2 0.83165 4.03535 6.08065
140 2 1.21095 3.5410999999999992 5.4645
141 2 5.4956000000000005 3.1986999999999997 3.0654999999999997
142 2 1.3557000000000001 3.6947 0.4787
143 2 5.914 0.8913 1.81995
144 2 0.19385000000000002 5.8557500000000005 2.41455
145 2 0.33710000000000007 4.744749999999999 6.081150000000001
146 2 0.28909999999999997 2.2218 5.86165
147 2 5.3681 2.22855 0.08754999999999999
148 2 4.525949999999999 4.576100000000001 1.5973000000000002
149 2 4.151449999999999 4.521799999999999 4.2013
150 2 3.51755 3.25735 3.1250000000000004
151 2 0.44145 2.2273 1.9025999999999996
152 2 3.9899 4.20265 1.9932500000000002
153 2 4.65945 1.7471500000000002 5.63195
154 2 0.4351 1.2350999999999999 3.50995
155 2 0.6325000000000001 2.76145 4.1421
156 2 0.3403999999999999 3.3927500000000004 1.9307000000000003
157 2 2.39985 5.8408999999999995 0.32925
158 2 4.4937 2.2985499999999996 1.32455
159 2 2.6012000000000004 0.20034999999999997 3.2222999999999997
160 2 4.800800000000001 1.3736000000000002 2.40675
161 2 1.1621000000000001 5.7482 4.803800000000001
162 2 5.7858 1.4675500000000001 4.5413
163 2 1.9813499999999997 5.75075 0.2012
164 2 3.7376000000000005 3.5098499999999992 5.77505
165 2 0.6179500000000001 0.9654 6.11935
166 2 1.5924999999999998 6.252599999999999 0.07525
167 2 0.07485 1.6885000000000001 2.35945
168 2 3.42645 6.0394 3.79655
169 2 1.0321500000000001 0.09104999999999999 6.097849999999999
170 2 4.9351 3.24985 1.7798000000000003
171 2 5.893050000000001 1.6736499999999999 2.3673000000000006
172 2 6.1758999999999995 4.580450000000001 4.475199999999999
173 2 0.5749 2.8547000000000002 0.4279
174 2 2.065 5.239299999999999 2.2661
175 2 5.4011 4.59625 6.1059
176 2 6.2034 2.41865 0.991
177 2 3.7184500000000007 2.1668 3.5395500000000006
178 2 1.01045 6.0378 3.9182
179 2 1.80505 2.2695 0.8662999999999998
180 2 6.10475 4.35745 3.77515
181 2 4.2322 0.731 4.2479
182 2 0.3666 1.6355 1.1423
183 2 4.24375 0.0668 4.72065
184 2 1.8847 2.2692 1.91905
185 2 2.8912 4.132949999999999 0.5115000000000001
186 2 4.19225 3.5829 2.6014000000000004
187 2 6.210500000000001 2.2286 4.1878
188 2 2.6434499999999996 6.1475 5.001
189 2 3.8419 2.1969 1.9999499999999997
190 2 1.8247 5.893050000000001 3.1994
191 2 3.1312 1.2378 5.405949999999999
192 2 1.09835 1.85345 1.65345
193 2 4.3858500000000005 5.13085 2.4680999999999997
194 2 1.71775 4.732350000000001 4.49305
195 2 4.9637 3.61865 0.13195
196 2 4.68785 0.9013499999999999 5.93965
197 2 0.0311 0.79415 0.9428499999999997
198 2 2.40415 0.46834999999999993 0.30619999999999997
199 2 6.16345 4.833550000000001 6.11975
200 2 3.9416999999999995 3.21725 2.6813
201 2 6.237350000000001 4.146949999999999 3.1558
202 2 0.46295000000000003 0.29765 0.47539999999999993
203 2 2.189 0.49865000000000004 6.04905
204 2 0.6073999999999999 5.495749999999999 4.1030999999999995
205 2 5.3341 5.81245 0.70335
206 2 3.7021499999999996 3.6499500000000005 0.7430999999999999
207 2 2.5653499999999996 2.0185 1.8730999999999998
208 2 5.4405 3.4537499999999994 2.7072999999999996
209 2 5.66625 2.56935 0.00975
210 2 2.91215 0.6778500000000001 0.6596000000000001
211 2 5.0417499999999995 3.90475 2.96755
212 2 2.7069 6.040749999999999 4.76635
213 2 5.750349999999999 0.1281 5.18485
214 2 0.34575 3.0417 0.81265
215 2 3.5637999999999996 1.35545 6.0501
216 2 3.06275 6.0920000000000005 0.73685
217 2 6.16765 5.45875 3.9158999999999997
218 2 1.1253000000000002 1.18565 2.7072000000000003
219 2 3.54285 2.34035 4.4799500000000005
220 2 1.1721 0.563 5.7369
221 2 2.1568499999999995 1.6843499999999998 3.6533499999999997
222 2 4.8588000000000005 6.156249999999999 4.3063
223 2 4.3752 2.5103999999999997 2.4459
224 2 1.84965 0.32385 6.229
225 2 0.18885 0.34155 3.8633500000000005
226 2 3.0163 0.77995 0.10064999999999999
227 2 1.4248999999999998 4.3058 2.2114
228 2 0.22820000000000001 3.68435 5.902399999999999
229 2 2.3457 3.68885 0.6336
230 2 2.20675 1.7438499999999997 6.2139500000000005
231 2 2.8587999999999996 4.878349999999999 3.62225
232 2 0.36225 5.58605 5.6229
233 2 5.22085 3.5091 1.3271000000000002
234 2 5.145449999999999 4.60975 6.1882
235 2 1.3233000000000001 2.97315 0.3317
236 2 1.5058500000000001 0.76705 1.50485
237 2 4.13705 0.8150999999999999 2.822
238 2 5.0897499999999996 5.8294 3.1343500000000004
239 2 2.9385000000000003 2.63025 5.134449999999999
240 2 1.2365 4.856399999999999 2.8583000000000003
241 2 1.1703000000000001 0.41414999999999996 4.93195
242 2 1.0810499999999998 6.0026 5.66475
243 2 3.4154000000000004 1.65985 4.6555
244 2 4.443350000000001 3.4023499999999998 5.8539
245 2 4.7983 2.9786500000000005 2.4497999999999998
246 2 1.36425 5.636950000000001 0.52355
247 2 1.1978499999999999 5.0956 3.2399
248 2 3.32755 4.618550000000001 5.447
249 2 3.25475 1.9408 6.2655
250 2 1.5752 4.4344 5.77245
251 2 4.5600000000000005 5.66205 3.42865
252 2 4.2974499999999995 0.45575 1.3375500000000002
253 2 5.2537 1.7534499999999997 3.97245
254 2 0.09285 5.705500000000001 5.94495
255 2 3.3383000000000003 2.2192 1.7923000000000002
256 2 3.1801000000000004 1.9058499999999998 5.642799999999999
257 2 0.5452 5.5301 2.14715
258 2 0.72725 3.2792499999999998 3.6630499999999997
259 2 3.969500000000001 4.37805 5.62975
260 2 4.95425 3.4456 0.3453
261 2 0.5923 3.0217 6.2353000000000005
262 2 6.22505 1.36205 0.20254999999999995
263 2 3.23505 4.876150000000001 6.0647
264 2 5.882499999999999 4.5264 1.2374000000000003
265 2 3.6091 3.5269 4.5604
266 2 0.9577 3.6474999999999995 2.9139999999999997
267 2 1.7976500000000002 1.07465 4.0585
268 2 5.5671 2.07555 4.492649999999999
269 2 0.35165 5.57015 5.89355
270 2 4.7762 0.679 4.716749999999999
271 2 0.7645500000000001 5.912850000000001 4.835850000000001
272 2 6.25735 5.964550000000001 0.027250000000000003
273 2 1.53535 2.37275 5.1443
274 2 5.7422 6.2356 1.9891499999999998
275 2 4.458600000000001 5.9933 3.79385
276 2 1.8175000000000001 2.6869500000000004 3.1880999999999995
277 2 2.2005000000000003 0.16935 4.4627
278 2 1.9863 3.1589 1.28165
279 2 2.49735 1.8475000000000001 1.6469
280 2 3.968 5.84075 2.73365
281 2 4.430700000000001 3.0919 3.46535
282 2 0.0263 6.00885 4.690849999999999
283 2 5.8121 5.4582 2.1063
284 2 2.5352999999999994 3.0963000000000003 3.3952999999999998
285 2 3.0988 1.7173000000000003 0.56325
286 2 3.43935 1.8967500000000002 5.5987
287 2 3.37085 1.18885 0.36475
288 2 0.012799999999999997 1.7880000000000003 4.027950000000001
289 2 3.6907999999999994 1.9082999999999999 3.4335999999999998
290 2 0.17304999999999998 3.491400000000001 5.2334
291 2 2.9375999999999998 4.49895 1.8444999999999996
292 2 1.0239 5.5353 5.51365
293 2 5.63065 4.9944 4.610850000000001
294 2 4.5468 1.5257 2.39205
295 2 0.9170000000000001 0.30575 4.35635
296 2 0.0842 2.7168 0.8137000000000001
297 2 5.18875 5.6206 2.99815
298 2 4.55795 0.08585000000000001 0.27605
299 2 3.04415 0.90335 1.9122500000000002
300 2 5.02745 0.6928999999999998 4.822150000000001
301 2 6.06165 3.5751999999999997 3.3622
302 2 4.925 4.5554499999999996 0.39525
303 2 4.171099999999999 4.5586 0.17425
304 2 4.3099 1.3857499999999998 5.73665
305 2 4.5917 3.9357499999999996 4.00835
306 2 3.3438499999999998 6.2413 1.24755
307 2 5.3112 5.2170499999999995 3.7011000000000003
308 2 6.095000000000001 2.9215 4.5612
309 2 3.98855 4.4573 0.015150000000000002
310 2 2.582 2.5332 5.1339999999999995
311 2 2.19725 1.15625 0.58435
312 2 3.53785 3.7307 1.0919500000000002
313 2 4.27715 2.09835 0.52545
314 2 2.0325499999999996 2.8772499999999996 2.6283000000000003
315 2 0.37060000000000004 6.0298 2.50245
316 2 3.9585 3.3921 4.7842
317 2 0.0262 5.195600000000001 2.5407
318 2 5.429250000000001 1.0638 3.17155
319 2 2.5675999999999997 4.15595 5.7205
320 2 0.7168499999999999 2.0302 5.95385
321 2 4.847099999999999 1.1042999999999998 1.77075
322 2 1.2094 4.85335 0.27885
323 2 6.1779 0.9434999999999999 1.83265
324 2 4.06705 1.3736 6.06265
325 2 6.012650000000001 0.80555 3.151
326 2 3.99925 1.93185 5.6507
327 2 4.94965 1.47465 0.8948
328 2 5.36865 3.5391 1.11705
329 2 5.596 5.38625 0.0464
330 2 2.2482499999999996 2.6229 0.85925
331 2 0.75925 1.3238 2.5727499999999996
332 2 1.89805 4.198 4.2158
333 2 2.12505 4.83725 1.21
334 2 3.6327999999999996 2.19295 2.35015
335 2 1.0868 5.852649999999999 0.158
336 2 4.4818999999999996 4.4801 4.4954
337 2 5.25025 0.04215 5.2249500000000015
338 2 3.3693 4.12085 5.243200000000001
339 2 0.39625000000000005 5.70505 4.9148
340 2 4.180649999999999 1.9947499999999998 5.2139500000000005
341 2 2.16025 0.33475 0.29474999999999996
342 2 5.054899999999999 0.28685 1.67195
343 2 4.02105 1.9238499999999998 2.33365
344 2 2.002 3.41025 5.526399999999999
345 2 0.7963500000000001 1.5194999999999999 1.78855
346 2 4.7887 1.08845 1.05905
347 2 0.868 2.4543999999999997 6.03815
348 2 5.0845 3.42185 4.403649999999999
349 2 1.8864 0.1689 3.0989
350 2 0.9956999999999999 4.16405 5.763450000000001
351 2 1.9480499999999996 5.673699999999999 1.2791000000000001
352 2 2.12 0.5969 3.34315
353 2 1.6942500000000003 3.0715 4.312399999999999
354 2 4.06065 0.22565000000000004 4.65405
355 2 1.40575 1.5514 2.36805
356 2 4.3332999999999995 3.7758499999999997 5.796850000000001
357 2 6.1244 5.79715 3.5649
358 2 3.78065 2.9238 4.9728
359 2 5.213450000000001 5.8911999999999995 5.571350000000001
360 2 4.6274999999999995 0.7054 2.4872
361 2 4.287 1.6750999999999998 5.709899999999999
362 2 1.9240000000000002 2.34015 3.8960999999999997
363 2 3.7260999999999997 3.8850499999999997 5.3751500000000005
364 2 5.3613 0.6067 4.56815
365 2 2.0794999999999995 2.1257499999999996 4.46415
366 2 1.2901 0.34015 1.4937500000000001
367 2 1.1131 1.6200500000000002 6.267049999999999
368 2 4.31305 5.4987 1.0271
369 2 5.75855 4.6098 4.757249999999999
370 2 5.976249999999999 3.0924 2.84145
371 2 4.201300000000001 5.984049999999999 2.7638499999999993
372 2 1.658 1.2650000000000001 2.11085
373 2 1.7672999999999999 3.51105 3.733199999999999
374 2 4.076600000000001 3.8465499999999997 4.57055
375 2 0.7901500000000001 5.5003 5.381349999999999
376 2 4.880249999999998 6.20115 2.0268
377 2 0.71095 2.3122000000000003 4.878449999999999
378 2 2.27055 0.44695 4.226850000000001
379 2 0.16915 1.42805 1.9391500000000002
380 2 3.4087000000000005 1.4549999999999998 3.4692999999999996
381 2 2.2045999999999997 3.50575 1.9061
382 2 5.7913 1.5830499999999998 4.77265
383 2 3.1328 1.97335 4.4961
384 2 5.822900000000001 2.93885 0.5672499999999999
385 2 3.3301499999999997 4.9628499999999995 0.63845
386 2 3.49915 5.30545 0.23645
387 2 1.52195 4.5234499999999995 3.86195
388 2 0.26915000000000006 4.258749999999999 2.73895
389 2 2.93935 2.09835 3.8939
390 2 0.3745 1.9420499999999996 2.5738
391 2 5.1353 1.52205 3.193
392 2 0.8497999999999999 3.2378499999999995 5.81335
393 2 5.31605 5.5524 0.00615
394 2 5.036949999999999 4.354100000000001 5.27885
395 2 3.97485 5.312600000000001 0.05985
396 2 1.6484 0.5623 3.7898000000000005
397 2 0.053849999999999995 2.18985 3.7519000000000005
398 2 5.925549999999999 0.022650000000000003 4.70655
399 2 3.38125 4.157500000000001 3.0795000000000003
400 2 4.85955 1.1135 5.98305
401 2 5.723750000000001 6.2156 5.76535
402 2 4.1349 1.6713 2.3146500000000003
403 2 0.9009 2.951 0.86105
404 2 2.3063499999999997 3.1610000000000005 4.41345
405 2 3.0888 2.75885 4.039949999999999
406 2 4.417599999999999 1.0048 0.78125
407 2 3.6866999999999996 0.5567 3.2369
408 2 1.0534 2.0236 4.2287
409 2 2.4195 0.6509 0.50295
410 2 4.433549999999999 1.6353000000000002 6.126150000000001
411 2 5.8318 2.9761 3.4474000000000005
412 2 3.53155 1.59485 0.44175000000000003
413 2 0.8222999999999999 0.6951999999999999 1.302
414 2 0.5973999999999999 4.17375 2.273
415 2 5.69505 4.91135 1.13205
416 2 2.4295999999999998 5.15455 1.02615
417 2 1.59395 3.44845 0.75
418 2 2.33335 1.6279499999999998 5.81995
419 2 0.17385 0.2714 0.25815
420 2 1.9955000000000003 1.8296 1.0744500000000001
421 2 4.994300000000001 6.02595 2.5524999999999993
422 2 5.73785 3.6189 0.9562999999999999
423 2 5.886750000000001 0.51415 2.6208
424 2 5.736199999999999 5.65395 3.3744500000000004
425 2 1.7981500000000001 1.9534000000000002 2.8451
426 2 1.4612 4.9093 6.0672
427 2 4.9296999999999995 5.93285 4.4377
428 2 1.3558 4.5404 6.2282
429 2 4.16195 4.35875 0.37725
430 2 2.5371 3.5195 2.28505
431 2 3.9329499999999995 5.22755 1.96065
432 2 6.231949999999999 1.4221499999999998 3.10875
433 2 5.0831 0.57525 0.7151
434 2 2.21145 5.318300000000001 1.0886
435 2 1.9974 6.2682 0.6880499999999999
436 2 6.11695 2.00165 3.2373000000000003
437 2 6.0451500000000005 2.98695 4.096300000000001
438 2 2.9402 3.0596500000000004 0.32785000000000003
439 2 3.57705 4.985200000000001 2.85615
440 2 5.9116 4.8649000000000004 3.63395
441 2 2.62915 1.4218499999999998 1.6634999999999998
442 2 2.30365 2.1404000000000005 0.12820000000000004
443 2 0.29655 0.7593 1.3197
444 2 0.39275000000000004 5.651549999999999 3.7022499999999994
445 2 0.77135 2.6667000000000005 2.4966999999999997
446 2 5.03575 1.4330500000000002 0.24485
447 2 2.91745 0.5235000000000001 0.8878999999999999
448 2 0.6332500000000001 3.1147 5.36675
449 2 2.10135 0.33535 2.9886000000000004
450 2 4.86815 1.35045 5.30655
451 2 1.8944499999999997 3.0511999999999997 3.85655
452 2 0.43355000000000005 6.162699999999999 3.2704499999999994
453 2 3.5551000000000004 0.9833999999999999 3.0103
454 2 1.82295 1.2507000000000001 2.47345
455 2 1.7319 1.07195 5.673900000000001
456 2 3.8749500000000006 1.89935 1.02895
457 2 3.1019 0.46525 4.1293
458 2 2.8565 2.29875 2.5929999999999995
459 2 2.00195 2.0587 2.0184
460 2 0.32855 0.45664999999999994 5.663600000000001
461 2 2.9796500000000004 2.3337999999999997 4.6944
462 2 0.43170000000000003 5.072650000000001 4.776549999999999
463 2 1.76085 0.686 4.269800000000001
464 2 2.6480000000000006 3.1967499999999998 4.818250000000001
465 2 2.9140499999999996 3.38385 2.81595
466 2 3.30875 0.42924999999999996 3.767549999999999
467 2 0.0919 2.8602499999999997 2.7884
468 2 5.7992 1.9939 2.4135
469 2 5.64155 5.98705 2.00695
470 2 2.2465 3.34535 3.2220500000000003
471 2 3.2657499999999997 5.5836500000000004 4.5161999999999995
472 2 2.3768 4.9708 4.587000000000001
473 2 3.8287999999999998 5.7914 1.22225
474 2 3.47245 1.02815 0.17464999999999997
475 2 2.0624 5.82445 2.7969500000000003
476 2 1.6593499999999999 0.6736000000000001 2.6777500000000005
477 2 4.994149999999999 0.16435 0.39035000000000003
478 2 4.57555 6.05065 4.9003499999999995
479 2 0.7724 2.3198499999999997 0.65255
480 2 4.715000000000001 5.1918500000000005 6.1934499999999995
481 2 0.6952499999999999 4.18915 2.5221
482 2 5.590300000000001 1.86905 2.6991500000000004
483 2 5.67785 1.8181999999999998 0.19055
484 2 4.953750000000001 0.36595 4.9996
485 2 5.6831000000000005 5.0981499999999995 0.9318000000000002
486 2 5.20735 5.5922 1.04755
487 2 2.6083 4.77455 0.7930500000000001
488 2 3.5877000000000003 2.41495 5.95135
489 2 4.7311 3.9669499999999998 0.5025
490 2 2.7395500000000004 6.168149999999999 0.19495
491 2 4.59255 5.07115 0.74035
492 2 1.2582 1.1003500000000002 0.8694000000000001
493 2 4.7863999999999995 4.55015 1.8885
494 2 5.92615 2.83985 5.5616
495 2 5.064499999999999 4.1395 0.34235
496 2 3.91935 2.03625 0.5593000000000001
497 2 0.06224999999999999 0.25105 3.4521499999999996
498 2 3.66485 1.15425 5.596150000000001
499 2 2.8291 2.8157500000000004 6.0154499999999995
500 2 4.4772 4.393600000000001 5.9415000000000004
501 2 4.1251 2.479 0.32375
502 2 2.1825 5.92105 1.9701500000000003
503 2 4.992849999999999 4.41005 0.9479
504 2 3.6693 2.53805 0.6155
505 2 4.8468 2.5526 0.9003
506 2 0.4828 5.123949999999999 5.77585
507 2 2.6884500000000005 1.4739499999999999 2.90935
508 2 2.60645 2.3839999999999995 4.53795
509 2 3.56745 2.2389 3.3348999999999998
510 2 1.58965 5.962149999999999 3.10605
511 2 4.7650500000000005 5.088150000000001 2.761
512 2 3.0268 0.10164999999999999 3.6489500000000006
513 2 2.3828000000000005 6.12815 5.25445
514 2 3.9868500000000004 3.1336 1.6249999999999996
515 2 4.074450000000001 4.7704 3.2109
516 2 1.4490999999999998 2.0073 3.8429
517 2 0.28805000000000003 2.37025 2.7135
518 2 1.7041 5.541949999999999 1.69205
519 2 3.3211 2.7689 1.5691
520 2 2.84845 2.4947 2.8182
521 2 4.873100000000001 5.802650000000001 5.75065
522 2 4.53795 5.28655 5.604450000000001
523 2 3.3016999999999994 4.0143 4.2543500000000005
524 2 1.92655 6.016399999999999 0.6285000000000001
525 2 5.92115 2.4578 2.1021
526 2 5.5306 4.051200000000001 5.81685
527 2 3.4326999999999996 6.00005 2.31655
528 2 5.3165 4.4369 0.20789999999999997
529 2 1.0494999999999999 5.57825 2.662
530 2 6.099399999999999 2.5493499999999996 4.58735
531 2 3.5237000000000003 1.42035 0.026600000000000002
532 2 3.7747499999999996 1.0349499999999998 6.0150500000000005
533 2 3.897849999999999 3.4380499999999996 3.3326499999999997
534 2 3.80595 2.8721500000000004 1.8369999999999997
535 2 2.3162499999999997 0.4796 4.507299999999999
536 2 0.1748 4.201099999999999 4.697
537 2 2.4501999999999997 4.12865 0.5739
538 2 5.5161500000000006 0.5526500000000001 0.8776999999999999
539 2 1.4277000000000002 4.6969 2.9989
540 2 2.4981999999999998 2.2043 4.136850000000001
541 2 1.9535500000000003 0.1888 2.6240499999999995
542 2 3.1424 1.0507499999999999 3.8314500000000002
543 2 3.1247 2.5176 3.23795
544 2 5.25475 3.7031 2.95695
545 2 3.8777 2.47395 3.83055
546 2 1.8329 5.733149999999999 4.663899999999999
547 2 0.3914 3.16575 1.7996999999999996
548 2 2.68235 4.5102 5.980700000000001
549 2 1.3165 1.8183 3.2253999999999996
550 2 3.7779499999999997 4.575 4.57495
551 2 5.28505 6.09815 3.4957499999999997
552 2 1.9404999999999997 6.1959 4.803249999999999
553 2 5.75515 5.672700000000001 5.272499999999999
554 2 3.6102000000000003 4.9627 1.4751
555 2 0.49915000000000004 3.8242000000000003 3.6153500000000003
556 2 2.5939500000000004 1.6631 2.01075
557 2 0.6091 1.0806499999999999 0.7686999999999999
558 2 1.6629999999999998 2.90935 1.1162000000000003
559 2 5.0462 3.5467 5.81695
560 2 4.491549999999999 0.14750000000000002 5.0911
561 2 0.199 1.0423499999999999 3.00575
562 2 4.06775 1.2530999999999999 1.3867999999999998
563 2 1.59555 2.8941499999999993 5.623849999999999
564 2 2.7353 0.9711000000000001 1.8602500000000002
565 2 1.5163999999999997 3.1919 3.4009
566 2 1.8670500000000003 0.38785 3.8608
567 2 5.835850000000001 4.21145 5.608300000000002
568 2 3.701749999999999 0.79135 4.1446
569 2 0.0045000000000000005 2.3416 0.49470000000000003
570 2 0.3589 3.6723 0.3175
571 2 0.46015000000000006 2.4727500000000004 4.44255
572 2 2.1805499999999998 3.04305 0.7124999999999999
573 2 4.8092 2.65915 4.65515
574 2 2.3461000000000003 0.71895 1.17625
575 2 5.2472 1.4699499999999999 0.5828
576 2 5.4236 0.8102 1.52165
577 2 1.07045 3.2535499999999997 4.49795
578 2 2.7994 5.29265 3.4377500000000003
579 2 5.3609 1.7432000000000003 5.0558499999999995
580 2 6.034249999999999 0.9300499999999999 0.2693
581 2 3.2481500000000003 1.2169 5.76475
582 2 0.6987499999999999 4.394550000000001 3.2724
583 2 1.6426000000000003 5.895099999999999 4.3610500000000005
584 2 5.3668 1.6598499999999998 0.9845500000000001
585 2 0.1717 1.1165 3.9772999999999996
586 2 2.6777000000000006 3.34625 0.09965
587 2 2.14325 3.6235 5.582300000000001
588 2 2.39135 5.1634 3.6231500000000003
589 2 2.8991 1.5419499999999997 5.622400000000001
590 2 5.778949999999999 5.76125 4.5078
591 2 2.68615 5.33045 3.92485
592 2 0.5993499999999999 3.46295 5.16705
593 2 1.3746999999999998 1.9714500000000001 4.989
594 2 5.108500000000001 2.6117 6.2064
595 2 4.8111500000000005 2.3910499999999995 4.2940499999999995
596 2 3.3983499999999998 3.4252000000000002 1.4557
597 2 5.259849999999999 2.6254 5.78855
598 2 1.3654499999999998 0.7188 0.047299999999999995
599 2 0.88845 0.16115 2.12135
600 2 4.055149999999999 2.8116 1.51725
601 2 5.30805 1.56115 5.790850000000001
602 2 0.7872 1.20695 3.2546
603 2 2.5881999999999996 2.6722499999999996 6.0784
604 2 1.55325 5.95975 3.6805999999999996
605 2 1.6645499999999998 4.70325 2.2188000000000003
606 2 0.21875 2.759 2.58845
607 2 4.53895 3.9351 2.4666
608 2 5.64795 2.8264000000000005 1.0572500000000002
609 2 5.91045 4.45935 5.17515
610 2 1.02455 1.2257 0.83065
611 2 4.5647 1.31175 5.833550000000001
612 2 2.79265 3.3766 4.3964
613 2 0.9541999999999999 1.4507500000000002 4.5265
614 2 4.3392 4.96025 0.0764
615 2 1.89355 5.860850000000001 4.4358
616 2 5.127149999999999 4.141699999999999 2.8305
617 2 3.96385 3.42505 3.741400000000001
618 2 3.0684500000000003 2.5427500000000003 1.049
619 2 5.6926499999999995 1.0411499999999998 3.1758
620 2 2.71645 0.24145000000000003 5.698449999999999
621 2 3.10215 4.2707 1.269
622 2 0.034699999999999995 2.84325 1.8113
623 2 4.354350000000001 5.9455 2.06815
624 2 1.7753500000000002 5.43615 4.359450000000001
625 2 4.696249999999999 3.0684 5.36545
626 2 3.9015 0.6482000000000001 6.062150000000001
627 2 1.0296999999999998 6.06715 1.48855
628 2 4.08335 2.3424 4.3403
629 2 4.359999999999999 0.0893 1.7569500000000002
630 2 2.1237 4.887450000000001 4.558349999999999
631 2 1.8657000000000004 5.3998 0.8575999999999999
632 2 3.9813 5.097849999999999 4.71375
633 2 2.5296499999999997 0.037399999999999996 1.0473000000000001
634 2 1.5269499999999998 4.7232 0.018750000000000003
635 2 3.3347499999999997 1.5283 2.8197
636 2 2.72655 2.76465 4.26645
637 2 1.40125 6.1411500000000006 1.0323499999999999
638 2 4.3864 4.09055 5.52475
639 2 1.8968 5.56175 0.6483
640 2 4.9974 2.7632 2.8199
641 2 1.30925 2.1954499999999997 1.0163999999999997
642 2 1.5431000000000001 0.08745 0.9692999999999999
643 2 6.07335 2.2314 5.4350499999999995
644 2 1.7230999999999999 4.632099999999999 1.5353999999999999
645 2 4.30725 5.997249999999999 3.3012
646 2 1.12975 2.55315 0.7055999999999999
647 2 3.3682499999999997 3.3899 4.48105
648 2 3.34185 3.3003 5.4902
649 2 5.75555 0.88555 0.22465000000000002
650 2 3.0752499999999996 0.5474 3.8577500000000002
651 2 6.177350000000001 0.5746 0.16135000000000002
652 2 1.9353500000000001 3.6057 0.9203500000000002
653 2 1.7683 4.074450000000001 5.823600000000001
654 2 2.65135 1.535 5.0451999999999995
655 2 0.36835 4.723 4.42585
656 2 5.4313 0.616 5.907649999999999
657 2 1.69945 5.20985 3.8567500000000003
658 2 2.6884 0.273 1.74295
659 2 5.9993 1.5912 4.96945
660 2 2.4190500000000004 0.04985 1.8360499999999997
661 2 2.29485 5.0454 5.5417000000000005
662 2 2.3663000000000003 2.6534999999999997 2.59
663 2 1.4724000000000002 0.35305 0.9399499999999998
664 2 2.50175 1.1574 3.4987000000000004
665 2 0.6085499999999999 1.88005 3.6645499999999998
666 2 3.9571000000000005 0.85205 3.2564
667 2 1.825 1.09495 1.4422000000000001
668 2 0.03269999999999999 1.0067999999999997 5.756450000000001
669 2 5.7095 3.8797000000000006 0.9696499999999999
670 2 3.8228 4.8870499999999995 0.9951500000000001
671 2 4.547549999999999 3.1390000000000002 3.6917
672 2 0.12905 6.1099000000000006 5.43385
673 2 5.2722 5.59855 1.9383
674 2 4.9338500000000005 5.0249 1.87865
675 2 1.2022 6.225350000000001 6.24985
676 2 3.4594500000000004 2.01735 1.1667
677 2 0.34205 5.687600000000001 1.2852499999999998
678 2 2.2645 1.7952 3.8926500000000006
679 2 5.2497 5.0596000000000005 0.028500000000000004
680 2 1.55775 5.159699999999999 4.80015
681 2 0.1927 4.091 3.00815
682 2 2.99735 4.43445 5.0637
683 2 5.1822 2.3562000000000003 5.7661
684 2 4.91705 3.61195 4.070200000000001
685 2 3.1251 1.3637000000000001 3.10665
686 2 4.63155 0.54995 3.9034999999999997
687 2 0.21649999999999997 4.079199999999999 6.1989
688 2 2.1729 0.8816 0.5701999999999999
689 2 2.4702 3.5800999999999994 1.2663
690 2 6.07365 0.16555 2.59395
691 2 0.64455 4.947 5.892999999999999
692 2 3.2476999999999996 5.1792 1.2605499999999998
693 2 2.8722 2.3293500000000003 3.98335
694 2 0.5949 6.264150000000001 5.4093
695 2 3.6940000000000004 4.45225 2.20825
696 2 5.7280500000000005 3.29465 3.1682999999999995
697 2 2.40265 2.3736500000000005 0.5323
698 2 4.363899999999999 5.6591000000000005 6.0935500000000005
699 2 6.15415 3.184 5.2523
700 2 0.6944999999999999 0.7794000000000001 0.46965
701 2 2.8152 2.9699 0.7577
702 2 2.4929 3.2064500000000002 1.0763999999999998
703 2 4.114700000000001 2.0927499999999997 2.7281500000000003
704 2 0.06905 2.2688499999999996 5.104450000000001