ITEM: TIMESTEP
1
ITEM: NUMBER OF ATOMS
8192
ITEM: BOX BOUNDS pp pp pp
0.0000000000000000e+00 6.094926817624493
0.0000000000000000e+00 5.729309059369259
0.0000000000000000e+00 7.040512236815552
ITEM: ATOMS id type x y z
1 2 0.5296560595977349 0.00291420115322 0.4220908134601325
2 2 5.990921060038322 0.47272505849733004 5.675042470751798
3 2 3.9548311614510783 1.2973919455522824 1.7881746433383152
4 2 3.49038035265664 3.0754189241606347 6.873403616400909
5 2 4.035492086227703 5.607703608389893 1.4928515800432525
6 2 5.160738006514775 2.1877324371672997 6.617838583124775
7 2 3.116634054756175 3.2449629841104697 6.804451535543469
8 2 1.5182467615213127 1.5455153580264425 4.93769753968083
9 2 1.1869645375677675 4.15211217166281 4.026697443461734
10 2 4.129995466482123 0.5089444156873499 6.965252992033645
11 2 0.3347688574761475 3.8566329904488246 6.406350842291094
12 2 3.0580898351602372 1.7537766618690573 1.3737856472116925
13 2 5.85837694687312 4.530594046437258 0.50665468620982
14 2 4.011501966019945 0.7797049264052724 5.269812392535295
15 2 1.7605417716890324 0.045013999955987496 4.68728439772914
16 2 2.9383473913466798 1.4723480933580975 0.371248411197705
17 2 3.8713080748275397 4.169961653726283 2.1095173597871275
18 2 1.8868411680973352 4.10257075205807 2.2983680023770447
19 2 0.39669563198207247 2.1132641898412676 1.7703251612748425
20 2 4.3375282200364325 2.0097059702893425 1.8330845646816876
21 2 4.171574872221815 1.4533537465558601 2.7895670146135374
22 2 1.258830819578425 0.72397082934994 1.464906472556125
23 2 1.0378198856904726 2.77931527127096 6.7366963587311055
24 2 2.90212803415666 0.7760101356574399 2.4588051837230673
25 2 1.8836667704125776 2.5104281755801074 3.98704349205542
26 2 3.4477601607907977 1.5229823383952947 6.041191029931369
27 2 5.2855803023464665 1.7425882110129451 4.222261156565321
28 2 1.9637032235135123 4.373019026938147 6.626893422422279
29 2 3.323802533166332 4.760711858929023 6.81902254130957
30 2 4.254785723007507 5.381332625952268 0.940974736652215
31 2 5.12857771521674 2.796019888595667 3.295180914697207
32 2 3.525402805801587 3.535862706369395 0.4398882562172975
33 2 0.22902498705930752 2.1364737204544126 6.030314814913099
34 2 4.9507073662577055 4.242504446718938 1.818149283771435
35 2 5.035063081782163 4.633007401250419 4.004008305911665
36 2 0.30135962282673245 5.457257973854909 1.011123721554725
37 2 5.512575756459783 0.8821182812184325 5.556288773758082
38 2 0.5879921219684423 2.65129857775451 4.847513421849932
39 2 6.05675078251731 5.606610782957434 2.456151179101385
40 2 2.1457367169771477 1.66213544346155 2.63693572921364
41 2 4.27617387789989 0.06109414560500499 5.098551035477312
42 2 5.520902045468982 4.968088494564411 0.6577247924204925
43 2 0.5267938977508225 2.802732959109335 6.920186952771349
44 2 3.7107147755625944 1.4457039685286577 2.6586361199438677
45 2 3.801887640213335 5.618631862714467 5.103078455126064
46 2 3.09821214032332 0.390190718693635 6.488989260707405
47 2 1.952254576125862 0.71980768484534 5.761739955060093
48 2 2.5716263997977276 4.289391861701994 3.441619522646512
49 2 0.76476964549502 3.547779707513812 3.17772820036118
50 2 2.143499026805925 1.037976003609395 6.337919154496732
51 2 5.8208045677191045 4.56197374814068 2.0562291101282475
52 2 2.2097971030416796 1.9912320165501798 6.976233285664527
53 2 1.69544059949835 4.835492342092899 1.8345937045646052
54 2 4.019984372948068 3.3667349608700197 3.0777606929444725
55 2 4.035440046921394 1.3854944911308802 6.2705282528285196
56 2 2.8047624920553273 4.832682219552296 3.018123647916078
57 2 0.827945363352325 1.1361221353053401 4.472778377129625
58 2 5.049425930323033 0.20284921598663502 2.981956330032365
59 2 5.711365906554431 0.5105576341828825 5.6246684222461365
60 2 1.8372997484925953 2.5374886148600075 2.68959950719683
61 2 1.8799199403584375 4.431042853471008 2.8651280873720273
62 2 0.65007501439329 1.63486684695642 1.8925654917911598
63 2 5.6737935274004165 4.314943161098977 5.384090709186565
64 2 5.529124255865567 3.32031589964373 6.138712689951622
65 2 5.732337746996355 4.980161613627749 4.884929683085025
66 2 4.037157344029543 0.7789763761169676 6.923309311149799
67 2 1.7092830549761449 3.6180848103352448 6.032344347859092
68 2 3.5963844196050174 3.005061782032895 5.355989483780514
69 2 0.42880388397380004 2.64880069105175 0.9968129123201623
70 2 5.46287821893612 3.5309189722701824 0.92067940719229
71 2 0.8195670350368175 4.8654149432197125 6.807417776002997
72 2 2.75308746089198 4.763313824244396 5.7236992221493095
73 2 5.9124978254329195 3.4344380983760776 4.877488062283052
74 2 3.5735391641360246 1.88819419006133 6.221455186980546
75 2 1.2327591271183675 2.077773382939552 1.420568983582135
76 2 2.6569188228357206 1.8958439680885326 1.741755582112025
77 2 1.597918939478095 2.6651930725386124 6.369038659668617
78 2 4.752333530613515 2.750485495576605 1.2580502299838128
79 2 6.049517318940568 4.909700392887395 2.6288696367359776
80 2 2.4728557964260927 0.5989203762930174 0.016340342180555
81 2 4.673546020863959 3.551734694793182 2.1082163771294398
82 2 1.8933981206920798 4.4249542546330325 6.903742531978179
83 2 3.608457538668357 1.5572762412519376 0.5634295693913026
84 2 2.7401817129277206 2.9609844895904422 1.5701819892161972
85 2 4.27497697385482 3.186783039658685 6.727589480127292
86 2 4.945347317708032 1.4949851916018602 5.8020183781420975
87 2 4.689626166512977 1.59490065971226 4.764666846208392
88 2 5.6033843459663695 1.3069671779128622 2.5444618819052125
89 2 1.0086778741582725 0.9361871204719251 0.24853972692462004
90 2 5.071126321053261 1.130814126061975 1.1269111780889125
91 2 5.352346732338989 1.290574796426 0.38842138227918005
92 2 2.8668453844801753 2.705783731458462 5.526210054712348
93 2 1.8529635796911528 4.859118187156504 2.3343271630355273
94 2 3.50349425784613 3.684695122408845 1.7185980908051874
95 2 0.2176804182842725 2.108476573660977 4.677813243981175
96 2 4.02180574866883 1.8344375866456823 5.0122178263131705
97 2 2.04930788238935 2.16587592851815 1.9481434709275696
98 2 5.512211481315631 4.540481514635683 5.699917259166784
99 2 1.3946013697346924 4.3307631102164565 6.817305244201423
100 2 2.297067019719357 3.72081040098625 1.821063484924655
101 2 5.849374146881922 5.483017430477123 6.886309364365166
102 2 5.188891271227132 0.6385222883930249 7.003293724944427
103 2 0.8944515968133099 3.2303919783443704 3.722007305031322
104 2 6.007781795281954 2.868094327831555 3.7121198368328976
105 2 2.012412014217333 5.25763519485934 3.6349975848851823
106 2 0.2498407095823075 4.874157546679372 4.3452820766762486
107 2 3.565889386108823 1.2004947572077174 6.270216016990675
108 2 2.0203740280823803 1.6428288608214676 6.834946569039666
109 2 4.052977293147023 5.481612369206821 6.483369015626195
110 2 2.5800567674195425 1.1924807040363625 5.662396919319075
111 2 0.6965461149258875 2.8990577150845174 0.6760426282407325
112 2 2.7174405360713427 4.139987013293162 5.664842766715528
113 2 5.312536663013753 4.262643658259939 2.372524013865232
114 2 1.655162176416345 5.719796274176247 4.932597687662695
115 2 5.09610518808086 1.5669035129188251 0.8037991252256451
116 2 0.6408640571768626 3.839303901448427 1.9117679958186276
117 2 4.2059728536910725 0.7446824732603249 3.089937890620427
118 2 0.6304561959153625 2.003981646595518 5.4424267715572725
119 2 4.460913415291515 1.5273536401251249 5.803423439412399
120 2 3.9117946551347753 3.5047432011975097 2.2695382266826902
121 2 1.8580113924029802 0.6191116271403274 2.9100380087154
122 2 4.441138478894665 2.649945555790515 4.22621614384469
123 2 0.7136670467010551 4.411163838461545 6.019022285444373
124 2 0.8756654072363024 4.179172610942712 3.066624281394667
125 2 1.7885389184824676 4.21872248373641 5.494361999252157
126 2 2.2242640301951653 2.6338133708351896 5.19872670011925
127 2 6.081885767463833 4.98099424252867 4.398518287028823
128 2 3.2869587043006225 2.0065836119108926 4.203943320745079
129 2 4.477826189841452 3.064386591223445 2.4404873479028275
130 2 4.120160037590005 1.238223254280655 2.095570825696717
131 2 2.4758220368856203 4.648202878692208 0.672660073330745
132 2 2.0972360834985575 1.7047035960210852 3.1448913980811475
133 2 5.526262094018654 2.3788207699284403 1.609575744090975
134 2 3.8835893511161097 2.8610169821737355 5.912601904045534
135 2 3.9224106736215054 1.7850002456535572 1.32970835476924
136 2 2.318923528368507 2.9697791323564102 1.7596571034818052
137 2 5.571276093974642 2.9344444433736174 3.7966316702762772
138 2 2.09531062916518 4.581696645231222 5.075237426251553
139 2 1.387263827545335 5.119887151063387 4.661733098332157
140 2 2.36987000924355 5.410006283727699 1.112704447466965
141 2 5.487336692900644 5.5335475969017045 4.7822040924340214
142 2 5.964537131740419 0.1289013617236775 2.5269766749858924
143 2 5.626541837273207 2.7512660851712174 0.27710930608743756
144 2 4.368855882433548 5.009980136141947 2.0799069944981596
145 2 2.3138757156566796 0.8060888547031749 5.933313547955921
146 2 4.952580781284775 5.716777994410412 5.165681740613988
147 2 1.0559295642854822 3.719821654166408 5.891109670540537
148 2 0.3041697453673375 3.2070263298123023 6.112588958185258
149 2 4.988019548880183 1.8996948767552875 3.0657916524937474
150 2 3.5032861006209006 0.21060307262645248 6.549198738105183
151 2 5.46475163396319 4.912042161671233 4.862865017210645
152 2 5.867483825476931 3.8174473927992776 1.584388719838145
153 2 2.7054714956206176 3.2138434789385855 0.1418071096879375
154 2 4.947168693428795 1.1126003688543502 5.799832727277182
155 2 3.3680359435277074 1.0798676451869325 4.675783711035182
156 2 3.027542762357735 5.2381724943003345 5.37774191381705
157 2 0.8576598072539076 3.9303726874865523 3.3991554486995916
158 2 1.39132289343732 3.486581483296193 4.8948171512834495
159 2 0.7569117102425874 5.520693888243753 0.7123660640433677
160 2 2.931113927769937 5.402044269862653 4.491356409481403
161 2 0.5816433265989275 4.006454153308117 0.7164771692416599
162 2 2.8456133475067147 4.019047665434533 3.3622075412212675
163 2 5.607235254633125 5.49430995994585 3.8508045881423847
164 2 0.30224429103395994 1.2079884173159974 4.202226023636933
165 2 1.23832733289327 5.145542529072985 4.006558231920733
166 2 4.616771137682478 3.1980755691274125 6.038172750165534
167 2 4.173604405167808 2.4673396299574977 0.5275224480391275
168 2 1.3544790645716098 0.8020818281174975 2.3386984647653573
169 2 0.7691929865311575 1.9545963449096997 6.43601324688637
170 2 2.294621172322905 1.58594989902737 2.88401835556165
171 2 0.00707734565782 3.3928066533300765 3.047890131123968
172 2 4.906161720058486 5.591987737885027 1.6715025185969
173 2 4.666520714512448 0.49047046194818755 1.1613611988644776
174 2 1.6364800654519525 2.734717585765433 0.007233463576742499
175 2 0.6431537866543925 1.4013664795546674 6.233268109512349
176 2 2.5892156853296626 5.293750473436744 4.037573658480002
177 2 1.2130882693341325 1.9370070593777649 0.018630071658084998
178 2 1.350419998679625 2.8433756573354927 1.4252525211498102
179 2 5.63668950200317 4.061719896606682 5.465376105638881
180 2 2.0411377112990725 5.579810540209073 1.3072273744443998
181 2 5.052288092169945 3.8291562367184655 3.9298522944234766
182 2 0.6067783115454499 5.2109038977952045 4.033306435362787
183 2 2.8820408619219653 0.5128473636604124 5.241711167129245
184 2 3.6045025513889875 2.2081838845461474 1.8278285947446302
185 2 2.8543559509663745 4.88815612007609 3.3595014972932775
186 2 5.446537876755565 5.276941777499422 1.3435508102470348
187 2 3.502089196575827 3.65378377446219 1.11093511105251
188 2 0.46887414983057507 2.3340149271976824 2.926950783265337
189 2 5.737593716933412 3.871464192746463 1.8285051057266275
190 2 3.2059855436861526 2.025942233857282 2.1537507701485024
191 2 1.5175182112330075 5.452366279062004 0.08971576407413
192 2 3.5255068844142023 1.8394853993575098 7.038368217395682
193 2 1.3614002923105075 5.477345146089606 0.6208809635547824
194 2 5.379251053699967 4.489066680003873 6.2047505696558405
195 2 4.562858416347908 0.04985365544258499 4.287934761125384
196 2 0.4173552365861501 3.422833333069505 4.402421235001884
197 2 4.740832843919557 2.7977371857038147 4.552710751617945
198 2 2.2401880579252595 2.11529372278726 6.388553399533929
199 2 2.4109810612264755 1.016119494960245 0.1772979165896525
200 2 3.6333323270833433 0.84595096333472 3.3335859227521425
201 2 2.112639718165578 2.22207837933025 6.04155530507552
202 2 6.043168523571053 1.88070052995305 2.5470118079142803
203 2 4.586328143492591 0.805880697477945 1.7483125347067696
204 2 5.807846780448537 3.6049188658394478 6.054929406796548
205 2 2.7306064805671397 2.400625239271282 6.237951647080025
206 2 4.907410663409864 1.2525340635152173 5.567321106695272
207 2 3.859495152295738 2.123463893877537 2.608990621726513
208 2 0.5106617127954975 3.198700040803102 2.6920453545932825
209 2 5.3490162167353095 4.717831470531642 5.5826727020559845
210 2 5.61920429508385 5.187798445794675 6.572980701087709
211 2 0.9499775366434127 1.6414758388574724 2.7834784157755603
212 2 0.30828085056563004 2.551903502707185 0.4719444689027175
213 2 0.9618424984815227 2.4227939837582775 4.833983202209982
214 2 1.6053605602800676 2.8673137382369425 5.141483463181
215 2 3.961127917514285 1.96396342004505 5.583973684713674
216 2 4.6823927029362356 0.38009509326998003 2.7168160643956525
217 2 2.3236591052424904 4.044651004137822 6.274639358026813
218 2 3.0255652687180494 2.735758371891582 3.9458804007661876
219 2 4.91833891773444 2.0295849852988073 6.224785702584227
220 2 5.502271973810897 0.2771613453937451 1.7028301809940147
221 2 4.151851975131272 4.798232198776731 6.441945727805425
222 2 1.4385745835645298 1.7804728260048048 2.633084820546885
223 2 1.776309681500205 1.036935217483245 6.2280641788816
224 2 4.355325662793597 4.654343516836493 1.0454176244113673
225 2 3.910285515251858 3.032954850213715 5.063580621638671
226 2 1.5773634134866321 1.5457235152516726 2.3501471121530075
227 2 4.6336318729261095 0.5936644063559599 5.1391416943971615
228 2 5.227608515119913 1.46292897891644 1.0262671596902075
229 2 4.2162245970336505 2.0989533806067047 2.235244323826047
230 2 3.34966606840116 5.418072376205362 2.9982446329066126
231 2 5.249829298913214 2.92710690118426 2.47311599295763
232 2 0.12796465421014247 2.7510579279459875 3.8312898482770725
233 2 1.2485270369295398 3.831550044808609 6.45537186883276
234 2 2.5182340715262326 2.6602493384394 2.890419190237472
235 2 5.4389401380346705 3.363508523878955 1.8572308028083677
236 2 5.179211960253938 1.6423605070647 4.77366964619959
237 2 2.2777604370792752 3.879790481755662 6.706461521766448
238 2 1.8464066270964072 2.9316343208330125 6.964992795502107
239 2 4.879049241472278 0.025707417315905003 4.914904323518145
240 2 4.634048187376568 1.0469788036005925 3.7467780148336924
241 2 1.4763551199437748 3.1503555252434348 4.35631440961344
242 2 0.4920316411374124 1.7129778457239775 0.5541145335622599
243 2 5.472557529909315 1.7238020214359375 6.026307788327422
244 2 3.394055596681457 2.354206178044992 0.658505382015105
245 2 1.3736815685990775 2.670553121088285 3.29200651701245
246 2 0.29808114652935996 1.8956878501696102 2.3997405710640547
247 2 5.708868019851672 4.830444529381072 5.334237053743981
248 2 4.78532645081247 4.488390169021875 3.7316345766982097
249 2 0.6751059207271976 4.913863537391994 2.0972881228048643
250 2 0.26670144482593755 0.6157290722303399 5.592299973722874
251 2 1.195967337558965 1.9543361483781625 1.1894624242705276
252 2 1.6040075383160723 1.77516481676144 5.990921060038322
253 2 4.111677630661881 5.304990963599165 5.765278627889003
254 2 2.241176804745102 5.076590448215548 3.17627109978457
255 2 5.471672861702087 1.2600277236234976 1.3257013281835626
256 2 5.775270174700042 4.764146453145318 0.7159047368722775
257 2 4.858025361724048 1.9270155125667252 2.642868210132695
258 2 1.7654855057882446 2.994810038690317 3.9236596169728846
259 2 5.696326547031565 5.354948697654365 2.7737470654960577
260 2 4.77137991672206 2.9775329889962276 6.380383228443652
261 2 5.593236681236407 1.156625621990495 6.760998714776707
262 2 1.8228848606454178 3.9333909672523872 3.969870520973945
263 2 1.3313215732647725 3.333950197896295 3.5382044751532327
264 2 3.246680281218618 2.393547893613463 5.537554623487383
265 2 4.852301038030222 3.6089779317314328 4.240891228223405
266 2 1.6644251729390802 5.138881497865625 4.2895479796209175
267 2 2.7148906100622754 2.5244787882831328 3.275249860381435
268 2 2.0860996719487526 3.806154863330549 5.464023083674884
269 2 4.204827988952307 0.377909442405065 4.667717618557519
270 2 3.6127247617855724 5.51054622351379 1.9845189460365125
271 2 3.1601389148292447 5.646681048814209 3.483823400061895
272 2 5.409850165808776 0.6062579184823749 3.941561138342665
273 2 5.0443260783048975 2.3551428855585277 5.896209522558672
274 2 1.64756443769545 0.5972551184911775 5.520381652405907
275 2 0.020659604604077498 2.606857010167905 0.4873481035697375
276 2 3.58925503464089 2.6627472251421596 5.757316614023956
277 2 1.8859044605838 4.137437087284095 4.1582007705007875
278 2 1.205542569919545 4.915632873806451 1.793794888419525
279 2 4.671828723755812 4.071815522030338 1.1603204127383275
280 2 5.240982616840941 1.5282903476386605 3.7480789974913797
281 2 1.9469465668824977 3.999897200713373 4.646589660196674
282 2 0.6842127993310101 4.273103558827747 0.6876473935473051
283 2 6.095363947797474 3.01807160860977 0.23485338936574748
284 2 1.5851172701264502 2.9266385474274923 3.624121369866915
285 2 3.5779625051721626 0.8404868361724327 1.1010996821603927
286 2 4.657465875214943 1.24644546467724 3.2576605748495
287 2 4.07842451393139 4.14316141097792 5.947051924821101
288 2 5.420830459439659 4.203631084907235 6.846135019895777
289 2 1.25664516871351 5.577104496281081 5.583921645407365
290 2 0.19067201831068 1.2625776496325651 4.8592222657691195
291 2 1.5695054782341997 2.20605027298754 5.862696209296643
292 2 2.535459081914015 5.250974163651979 3.5051074763416623
293 2 4.861459955940342 0.7799130836305026 0.5874196895990599
294 2 6.008094031119797 3.7764404194289676 5.004359891060736
295 2 0.49900490818261745 4.034607418020475 0.3625578470443525
296 2 0.08560465887583749 0.8473560246050225 0.01831783582024
297 2 4.170898361239817 3.5791073699109273 6.369559052731692
298 2 5.632838593336414 0.1242178241560025 3.220244313614408
299 2 3.0017312664292155 3.6071045167043634 3.1980755691274125
300 2 4.2806492582423346 4.74078080461325 5.689197162067438
301 2 2.7107795048639827 0.18879860328361 3.1376058951980976
302 2 1.256332932875665 4.13150460636504 0.7938596177209124
303 2 3.0835890952509124 1.831679503411385 4.28554095303524
304 2 4.797867923632578 2.07491122109264 0.1008001363176275
305 2 4.327796869756929 0.5379303093006276 1.3649389651394175
306 2 0.8068694442977875 2.2039687007352398 3.889261635503628
307 2 2.1985566128792606 3.940520352216515 0.6268134444738375
308 2 1.0060759088428977 5.425670114926257 3.069590521854195
309 2 0.6422170791408575 2.1377226638057922 6.849465535499457
310 2 2.2517928232318325 5.595318253488708 2.0966116118228677
311 2 3.1317774928916573 4.570820430212955 3.0670926351514347
312 2 0.30385750952949253 0.30442994189887496 1.1507451803777475
313 2 4.853966295832062 3.63296805193919 3.8346203638807523
314 2 5.632214121660724 5.53510877609093 2.58094143562677
315 2 0.48516245270482244 3.420803800123513 1.30556211664256
316 2 1.9263910408910354 1.7229693925350171 4.966319158149955
317 2 5.5557163413887 5.521526517144673 5.19102488278574
318 2 5.0193992505836045 3.241892665038327 2.2322260440602117
319 2 1.6326811960915053 3.818540218231735 1.2809475247591124
320 2 2.2728167029800628 4.71954876763979 0.29370984479953
321 2 3.4260077307542627 1.5394267591884652 4.747754071658455
322 2 2.2801542451694203 3.144475083630687 4.790062027686453
323 2 2.897704693120522 0.51976859139931 4.539596846428455
324 2 2.67960796038579 5.630600903165193 4.995253012456925
325 2 4.208835015537985 3.85278208178207 6.587811903385346
326 2 6.06237102759852 4.95226854544693 3.11319946053988
327 2 1.4708909927814873 5.389762993574082 4.668446168845825
328 2 2.788786425018925 0.5544788087064125 2.1106622245258926
329 2 5.600418105506842 4.740208372243868 2.5903085107621204
330 2 1.0058677516176675 2.022091325190528 3.560841573396996
331 2 5.793588010520283 2.72290466323363 6.722125352965005
332 2 3.0858267854221353 0.0473037294335175 2.805439003037325
333 2 5.29926663990534 4.43874467080452 4.576648832519394
334 2 1.1436157954136201 4.093567952066873 0.077954880848635
335 2 1.7976457970862798 5.105420223909903 3.32052405686896
336 2 0.48927355790311505 5.557277520577924 0.6358682837713425
337 2 3.208431391082605 4.2644129946743945 5.52490907205466
338 2 2.713849823936125 1.68669799603869 2.9252855254634977
339 2 4.275185131080047 0.2722176112945325 0.0058804416127475004
340 2 0.2228843489150225 2.709478522206295 6.0293260680932566
341 2 1.9749437136759327 3.8754712193321397 1.0110716822484176
342 2 3.3818783990055024 5.687115589815138 0.6450272016814625
343 2 2.746894783441387 5.670046697346277 6.6924109090634225
344 2 1.2400446300014176 3.5256109630268173 4.335134411946287
345 2 1.9010478987192825 3.7774291662488104 0.4335394608477825
346 2 6.0303148149130985 2.3305803329813872 6.203449586998152
347 2 3.8080282783576203 3.4658698393858076 0.44946348857787743
348 2 4.955651100356917 5.034959003169547 5.440813553061741
349 2 0.4048137637660425 1.5180386042960825 1.86342348025896
350 2 4.735264638144654 5.262839125490091 2.952189846824475
351 2 5.412035816673692 2.205113565474005 3.2341388083985096
352 2 0.09341055482196249 1.3853383732119575 1.3031162692461074
353 2 4.914331891148763 2.6429722887453098 5.516478704432845
354 2 2.427633639244875 4.833983202209983 1.1709884705313651
355 2 2.1341319516705752 4.4239655078131905 2.302375028962723
356 2 2.4806096530659096 1.4135957165369302 6.446473147454178
357 2 5.9863936403895694 4.4746517921566955 1.0407340868436923
358 2 4.036012479290777 4.249425674457836 3.1121066351074234
359 2 0.3339362285752275 5.270957257274061 4.04636830124597
360 2 5.280012096571564 3.2003132592986354 1.707617797174305
361 2 1.9860801252257376 2.8714248434352347 4.723399676306544
362 2 3.998336021524148 4.461954201417665 6.70162186627985
363 2 3.4443776058808093 3.6155348843261774 2.9342362861483866
364 2 4.201289316123398 1.572315600774805 4.260197810863487
365 2 4.740000215018637 5.0785679418552325 1.8215838779877302
366 2 2.5101159397422625 1.8755486386286075 2.4874788414985
367 2 4.2466155519172295 0.6718794837361325 1.692214162507285
368 2 0.881233613011205 2.5676714125183575 0.4099136157841775
369 2 3.726846960517919 2.1848702753203875 6.439031526652205
370 2 4.61817619895278 3.4551497422864625 2.6874138563319145
371 2 4.029455526696032 1.9280042593865678 4.752958002289205
372 2 0.8217526859017324 2.1095693990934348 0.2984454216735125
373 2 0.6822873449976325 1.62196109899216 5.4300414166560875
374 2 4.8930478148689955 3.836285621682593 5.879817141071811
375 2 3.78513098358232 0.5663437705445226 2.10571849042668
376 2 0.7411958397377225 4.495415475373386 0.015351595360712499
377 2 5.10276621928822 3.6562816611649502 3.049034995862733
378 2 1.6142592816586496 1.9650562454775078 2.4002609641271295
379 2 3.72726327496838 0.5802903046349326 2.465674372155658
380 2 5.48390209868435 0.5587460318236276 4.953985842555077
381 2 0.0194106612526975 4.045639750957665 0.20029928997756752
382 2 3.407013383952025 3.944267182270655 2.34343404163934
383 2 5.522150988820362 3.14816987437852 0.69878380509711
384 2 5.202369451560775 2.05513628469579 5.980617277389437
385 2 2.9085288688324824 4.37109357260477 3.853718789295605
386 2 5.20517957410138 5.103442730270218 0.10751320683129499
387 2 3.4320442902859325 5.137892751045782 6.110143110788805
388 2 5.88314765667549 5.664426452265067 4.479647565562215
389 2 5.68081883375193 3.3504986973020796 4.719600806946096
390 2 5.821637196620026 4.244325822439699 0.7667991784410125
391 2 2.9763881242574626 0.5632214121660725 0.72397082934994
392 2 3.39587697240222 2.2643863353582474 3.897171610062368
393 2 2.1180518060215574 2.44647186812819 2.3134073618999125
394 2 3.7583827801402654 0.15434858250804498 0.9134459436155475
395 2 4.594446275276559 3.7807596818524902 1.8418271681413474
396 2 2.17982246260856 1.8062843219333247 2.2235354799068596
397 2 2.6248105708439917 4.88295218944534 0.6610553080241724
398 2 2.4198277432987503 3.977572338307455 4.56551242096959
399 2 5.16375628628061 4.639304157313624 2.1299167678596675
400 2 3.742406713103862 2.351500134117003 0.4071034932435725
401 2 4.23724847678188 0.9631955204455175 0.558589913904705
402 2 2.5496137732296544 5.029807111845105 6.23305995228712
403 2 1.1501207087020575 0.1743837154364325 4.754779378009967
404 2 5.767672435979147 2.3113778289539195 6.356757383380049
405 2 4.24474213689016 4.562390062591139 5.028714286412647
406 2 3.98017430362283 1.36800928421156 4.287102132224464
407 2 3.8168229211235882 2.3460880462610225 0.12978602993090502
408 2 1.0584274509882425 4.430366342489012 5.898915566486663
409 2 0.9251027482284275 2.50704562067012 3.4330850764120826
410 2 2.31803886016128 2.835257525551522 2.1764919470048802
411 2 2.6602493384394 0.6742732918262775 2.717804811215495
412 2 0.8844600500022701 4.2197112305562525 5.888871980369315
413 2 4.156327355473717 2.2949854474670572 5.873260188477064
414 2 5.850987365377455 2.3087238243322377 4.509257930851182
415 2 2.5163086171928546 5.576480024605393 0.9399859898323724
416 2 2.2163540556364247 4.458415528588755 6.711613413090889
417 2 5.062800032044061 2.4131146727850825 0.708671273295535
418 2 5.716413719266261 2.198712730798182 2.675080540737038
419 2 0.9383727713368399 0.9229170973635125 5.54905531018134
420 2 5.349068256041616 3.9358368146488396 4.350538046613307
421 2 0.34262679272858 0.11969040450725002 2.416132952550917
422 2 2.165719810599227 4.3044312212248625 5.622378692768606
423 2 2.3687771838110927 0.24687446912278002 5.202213333641852
424 2 5.472089176152547 2.50121721836368 2.6159118494654097
425 2 1.2563849721819724 5.297497303490885 3.39525250072653
426 2 0.8837314997139649 1.3608278599411248 4.319886895198189
427 2 5.203462276993232 3.6217275617767695 1.6179540724064825
428 2 4.775178786082507 0.35631313028745254 4.153569272239421
429 2 2.10217981759777 3.22831040609207 5.795617543466275
430 2 1.9935737853340174 0.6203085311854 2.04514473788475
431 2 1.48998941819634 4.716270291342417 1.100423171178395
432 2 5.795773661385199 1.5477010088913574 5.41604284325937
433 2 4.104131931247295 2.180186737752712 5.430561809719163
434 2 4.070982893129417 0.8670268823892573 5.708451705401212
435 2 5.63127741414719 3.5792114485235422 5.6958061539684905
436 2 2.7295136551346824 3.90045008635974 4.11984780175216
437 2 1.4341512425283924 3.607260634623285 1.7596050641754972
438 2 0.24036955583434255 4.0966903104453225 6.1089982460500405
439 2 0.5888247508693625 3.927614604252255 3.37943255160905
440 2 3.188396258154218 5.336214547383665 6.4052059775523285
441 2 0.178494820634725 0.8092632523879325 4.414182118227381
442 2 2.1124836002466547 5.293594355517824 6.420089219156274
443 2 4.264725230512241 2.775932716360973 4.595330943483788
444 2 2.4970540738590796 4.583726178177216 6.995487828998302
445 2 5.319926244509417 1.710948312777985 1.766942606364855
446 2 4.379315783001355 2.1303330823101274 0.35704168057575747
447 2 4.4133494893264595 1.1964356913157324 3.6498287871828197
448 2 4.170898361239817 1.0770054833400202 3.6889623455260594
449 2 4.104704363616678 1.7113125879221374 5.2480599624987585
450 2 1.4189037257802952 3.674651536291498 5.650271760949428
451 2 0.30177593727719243 2.315228737620675 5.578249361019847
452 2 5.198726700119249 0.13639502183195748 5.362598475681567
453 2 0.5829963485629225 0.8914853563537826 3.747142289977844
454 2 0.7707021264140751 4.212425727673202 6.697302603856327
455 2 1.6120736307937351 3.3683481793655528 3.123919557639225
456 2 1.0659211110965225 0.08367920454246 6.73867385237079
457 2 0.6361284803028799 1.9534514801709348 4.103507459571605
458 2 1.95355555878355 1.4434142390511273 2.6926698262689723
459 2 0.94357670196759 2.2128674221138223 6.041919580219672
460 2 4.931504862230239 4.715958055504572 4.951800191690162
461 2 3.19979286623556 4.384936028082564 6.809343230336374
462 2 3.153686040847115 0.49759984691231507 1.8812729623224322
463 2 4.619789417448312 1.7397780884723402 0.30188001588980745
464 2 3.1380222096485575 3.655761268101875 0.5637938445354551
465 2 3.2107731598664424 1.7682435890225425 5.094283812360098
466 2 1.0880898555835175 2.9213825774904345 1.5321932956117226
467 2 1.9467904489635752 4.278567685990034 0.857295532109755
468 2 4.143629764734688 1.094178454421495 4.574775417492324
469 2 0.19285766917559496 0.38217666552227997 5.098446956864699
470 2 1.8202828953300425 4.515814883445929 0.8158722442889851
471 2 1.2226114623884048 2.869499389101858 3.4298586394210178
472 2 4.578470208240157 3.1507198003875874 5.767047964303457
473 2 3.6615376311020076 5.176297759100718 2.74954878806307
474 2 0.8452744523527227 2.43314980571347 6.160309002069234
475 2 1.9609451402792146 5.334237053743981 3.8973277279812897
476 2 0.2665973662133225 2.2028238359964747 1.55451815801764
477 2 5.172446850433963 3.1087761195037427 5.14918528051451
478 2 3.7921562899338324 3.761296981293485 6.391155364849305
479 2 5.038757872529994 4.92062864721197 6.830054874246759
480 2 3.0667803993135903 5.006857777763498 4.316400261675588
481 2 0.3596436458911325 4.624733151547526 5.629508077732736
482 2 2.856593641137598 3.5923773930193406 1.563781154540375
483 2 4.907514742022482 5.619568570228003 1.0391208683481599
484 2 2.649112926889595 1.9640674986576652 3.353308819842684
485 2 3.66814662300306 2.5221890588056026 5.449816353052937
486 2 1.2811556819843424 4.673233785026115 4.48224953087759
487 2 1.6516755428937426 5.431186281394853 4.876030961706443
488 2 4.012750909371325 4.702792111008773 0.31265215229545995
489 2 3.4788796659626824 2.8221956596683397 2.5194830148776126