ITEM: TIMESTEP
1
ITEM: NUMBER OF ATOMS
8192
ITEM: BOX BOUNDS pp pp pp
0.0000000000000000e+00 6.099256487909276
0.0000000000000000e+00 5.733388940983766
0.0000000000000000e+00 7.045518418082334
ITEM: ATOMS id type x y z
1 2 0.5509401358775025 0.22361289920332747 0.23979712346496
2 2 5.8215851573137165 0.21814877204104 5.630288667327347
3 2 3.9081519036932497 1.2954664912189051 1.645795101280995
4 2 3.4365717099346846 3.032486496456947 6.945894370087254
5 2 4.064998372904055 5.440553356530202 1.4845252910340525
6 2 5.160894124433698 2.147037699634835 6.664465801576295
7 2 3.1069027044766724 3.2885719227961547 6.89604071464467
8 2 1.4866068632863525 1.4943086806198624 4.926821324662563
9 2 1.1272234139267576 4.081807068841378 3.9936004446501645
10 2 3.969870520973945 0.243856189356945 7.013389350368083
11 2 0.32472527135879997 3.8018356009070273 6.422535066552727
12 2 2.9567172664732277 1.8595725715922047 1.4448193003214298
13 2 5.9554302531366075 4.56197374814068 0.3243609962146475
14 2 3.90898453259417 0.7602422258462675 5.345581622519015
15 2 1.7217204491836375 0.07707021264140748 4.6606402728997
16 2 3.1444750836306876 1.5300596840531149 0.593976642193805
17 2 3.914136423918612 4.135823868788562 2.0711643910385
18 2 1.8291295774023175 4.133013746247958 2.4002609641271295
19 2 0.4471217197940399 1.9712489229280996 1.8697202363221672
20 2 4.282782869800942 1.8617061831508124 1.9441884836482
21 2 4.069005399489733 1.4966504494036998 2.72290466323363
22 2 1.3442273212290325 0.7811620269818824 1.3800824032749
23 2 1.0749759503940275 2.8319270099478424 6.8181378731023425
24 2 3.062044822439608 0.886645700867185 2.316477680972055
25 2 1.9276920235487225 2.603474455257917 4.05615169083178
26 2 3.5007882139181405 1.5908415938202747 6.1801880170787005
27 2 5.342667421365795 1.769232335842385 4.290848962278605
28 2 1.840057831726892 4.348456474361008 6.7779114893266454
29 2 3.335979730842288 4.746557167613383 6.7359157691364935
30 2 4.348976867424082 5.579498304371227 0.7764784894142075
31 2 5.277306052643575 3.0605877218629978 3.04096890338507
32 2 3.7032731547606224 3.7263786067611515 0.2424511280866425
33 2 0.30625131761963753 2.1720686059687426 6.005648183723345
34 2 4.915268598662297 4.233137371583587 1.6836276769665475
35 2 5.056503275980853 4.753530434658587 3.9756468839740773
36 2 0.4775647139839276 5.573045430389098 0.9957721261940126
37 2 5.529644648928643 0.84137150437966 5.584389999164133
38 2 0.7323491576654475 2.6342296852856495 4.816393916678048
39 2 6.068147390598653 5.59297648470487 2.5166728923370076
40 2 2.168061579383065 1.6099400192351274 2.69667685285465
41 2 4.4765772464900735 5.583349213037982 5.05967767366561
42 2 5.582984937893829 4.84152890162457 0.6622522120692451
43 2 0.5711313867248126 2.8312504989658454 6.959684786258743
44 2 3.7194053397159474 1.51517644244917 2.540610973238457
45 2 4.068380927814042 5.538439291694609 4.840748312029957
46 2 3.02723052651989 0.5964224895902575 6.502311323122125
47 2 2.059403507813005 0.71481191143982 5.7472730279066075
48 2 2.4547981571373905 4.305055692900552 3.653835813768497
49 2 0.7641972131256376 3.5149949445400877 3.1300601957835097
50 2 2.1544272811305003 1.0472390001321297 6.323608345262169
51 2 5.84130805440426 4.358552099784663 1.7998314479511948
52 2 2.314968541089138 2.0509211008848824 6.985027928430495
53 2 1.747583984418465 4.993327558123548 1.71667263647181
54 2 4.009056118623493 3.413049943483695 3.036909837493085
55 2 4.008952040010878 1.3061345490119425 6.174307575465953
56 2 2.8457174261193305 4.921097000968738 3.097899904485475
57 2 0.7186107808002674 1.1829054716757825 4.524141172455128
58 2 5.0253837708089675 0.341065613539355 2.9902305797352575
59 2 5.833033804701367 0.49374893824556004 5.568986364497112
60 2 1.8121647635460725 2.521304390598375 2.74829984471169
61 2 1.7331170572649799 4.437860002597292 2.872621747480307
62 2 0.5955898606893374 1.64319313596562 2.0829773135703022
63 2 5.6514686649945 4.239954520709869 5.293334158986285
64 2 5.427595569259636 3.3176098557157396 6.41603015326429
65 2 5.830952232449068 4.991870457546937 4.63940823592624
66 2 4.008900000704569 0.7210045888904125 0.010511939874114997
67 2 1.6786839428673352 3.6414504588673124 6.081469453013372
68 2 3.6127247617855716 3.022546988952215 5.3045226098423965
69 2 0.560879643382235 2.803981902460715 1.1500166300894425
70 2 5.533963911352165 3.5254548451078955 0.85386093789346
71 2 0.9369677100665375 4.913239065716304 7.022652346890818
72 2 2.6410468344119327 4.810409396452685 5.929826914433319
73 2 5.9411194439020445 3.491056863638638 4.785326450812471
74 2 3.6876093235620653 2.1432388302743877 6.4001581648405015
75 2 1.239055883181575 2.080843702011695 1.5690371244774326
76 2 2.6075335211499024 1.964639931027047 1.8036823566179498
77 2 1.6421523498394701 2.641567227475007 6.53343082829401
78 2 4.704665526035845 2.766305444694085 1.1160870023769522
79 2 0.07118977102865999 4.874313664598295 2.6153394170960267
80 2 2.368777183811092 0.6217656317620099 0.06109414560500499
81 2 4.630041160790891 3.5432522878650596 2.085371121660447
82 2 1.8150269253929845 4.434633565606228 0.0022376901712225
83 2 3.7535951639599756 1.4910302043224903 0.6261889727981476
84 2 2.7435642678377077 2.929500709274405 1.5772593348740174
85 2 4.219398994718409 3.2249798904883904 6.721240684757778
86 2 4.957212279546142 1.492383226286485 5.822105550376793
87 2 4.62712695963767 1.5946404631807227 4.824095734011557
88 2 5.574190295127863 1.311286440336385 2.516308617192855
89 2 0.8423602511995025 1.0939182578899573 0.1348338426427325
90 2 5.013935123421318 1.0818451388266175 1.1529308312426623
91 2 5.26596148386854 1.2964552380387475 0.15362003221973997
92 2 2.9625977080859753 2.51474743800363 5.65583996672433
93 2 1.9257145299090377 5.22245662379547 2.191999660284515
94 2 3.628440632290438 3.7399088264011024 1.44003168414114
95 2 0.36448330137772994 2.261055819754568 4.46726221066103
96 2 4.0500630919938025 1.839797635195355 4.934314984770842
97 2 2.045456973722595 2.1289800603461324 2.034424640785405
98 2 5.491083522954785 4.49744500831938 5.616758447687396
99 2 1.4269698182579575 4.276642231656658 6.894895849905905
100 2 2.222182457942865 3.7954347662312053 1.7782351358335824
101 2 6.02115589700298 5.278711113913877 6.462136978652735
102 2 5.21558743536288 0.6789568293939525 0.05464127162287499
103 2 0.977194093842235 3.011774852546562 3.707800574409375
104 2 5.830223682160764 2.9886694005460326 3.6430116380565374
105 2 2.01204773907318 5.19310645503804 3.623653016110147
106 2 0.22059461943749253 4.815144973326667 4.313954414279135
107 2 3.780447446014645 1.2387956866500376 6.284787022756775
108 2 1.9874331471897324 1.5726798759189573 7.005843650953495
109 2 3.921421926801662 5.292969883842132 6.3550400862719
110 2 2.59801032809563 1.1553246393328074 5.683524877679921
111 2 0.6736488201505874 2.8166794931997448 0.6415926074651676
112 2 2.7731225938203674 4.484070906598354 5.792182949249979
113 2 5.247799765967222 4.430470421101628 2.364353842774955
114 2 1.6321608030284298 5.725364479951151 4.911365650689235
115 2 5.011697433250094 1.6302353486950527 0.87738270434445
116 2 0.61052514159959 3.879530285224125 2.1385552927067124
117 2 4.171158557771355 0.73541947673759 3.220920824596405
118 2 0.6536657265285074 2.1113907748141973 5.415002057133221
119 2 4.471685551697167 1.7884868791761601 5.799104176988877
120 2 3.9408325880543593 3.43396974461931 2.2259292879970047
121 2 1.9005275056562074 0.6136995392843475 2.9080084757694076
122 2 4.586848536555665 2.84030533826335 4.3454381945951726
123 2 0.6238992433206174 4.194264009771884 6.183362414763457
124 2 0.8399664431093574 4.04324594286752 3.043726986619367
125 2 1.7675150387342378 4.187290742726679 5.568257814208809
126 2 2.3283426428101652 2.5044956946610526 5.2627350468774745
127 2 6.068303508517576 4.899760885382662 4.350225810775463
128 2 3.269005143624535 1.9192096166206 4.19936386179002
129 2 4.4905237805804825 3.109973023548815 2.4234704947402754
130 2 4.010461179893795 1.3023356796514949 1.9122883888817026
131 2 2.36424976416234 5.057127747656543 0.8336176477398425
132 2 2.07990699449816 1.6387697949294824 3.1839729171180795
133 2 5.4441440686654206 2.3225142405037245 1.6112410018928147
134 2 3.8346203638807523 2.9175837081299876 6.064764835688664
135 2 3.9132517557113853 1.7641324838242498 1.23624576064097
136 2 2.3012822035302647 2.9908550514109473 1.7646008375810174
137 2 5.573045430389098 2.946829798274802 3.8541871430523718
138 2 2.1061348048771396 4.602044013997454 5.009824018223025
139 2 1.3217463409041923 5.094387890972713 4.688481301774212
140 2 2.31762254571082 5.5619610581456005 1.0102390533474972
141 2 5.202993923236465 5.318781379770653 4.812490968704985
142 2 0.018005599982395 0.045534393019062494 2.6994869753952546
143 2 5.664270334346146 2.7571465267839645 0.27768173845682004
144 2 4.339713870901347 5.093347104846561 1.8009242733836526
145 2 2.4363242033982275 0.7074743692504626 5.921812861261962
146 2 4.842153373300259 0.04569051093798499 5.258780059598105
147 2 1.0533796382764151 3.6875052449494503 6.013610197588393
148 2 0.3289404551697075 3.181527069721627 6.090732449536108
149 2 5.109791525639732 1.9606849437476774 3.078333125313855
150 2 3.540025850873995 0.16121777094063497 6.52406375315866
151 2 5.433632128791305 4.873376957084759 4.791258931731526
152 2 5.852392426647757 3.837846800871817 1.5536334898104125
153 2 2.6834068297462372 3.1601909541355524 0.12536268889476748
154 2 4.988539941943257 1.1198338324310926 5.819399506448803
155 2 3.3000726094901123 0.9098552314803301 4.712107146837817
156 2 3.0179154906908474 5.232552249219125 5.1975297960741775
157 2 0.7701296940446924 3.8853066482242573 3.4176294024387555
158 2 1.1669814439456878 3.4738838925571622 4.798388316695653
159 2 0.7778315113782026 5.650115643030506 0.38888973603594745
160 2 2.929136434130253 5.384246827105488 4.353972640829602
161 2 0.5812270121484675 4.10860731158974 0.7537893518641374
162 2 2.931946556670857 4.066403434174357 3.4055562833754145
163 2 5.614989111272942 5.531934378406173 3.853614710682989
164 2 0.16189428192263253 1.1986213421806473 4.05531906193086
165 2 1.2198533791541075 5.067223373080198 3.9946932700826228
166 2 4.941912723491736 3.1462964593514497 6.043949113165665
167 2 4.237560712619725 2.3311527653507698 0.375619712927535
168 2 1.412034537347705 0.7475446351072375 2.369817969937243
169 2 0.94253591584144 2.0600800187950026 6.609512294115576
170 2 2.36716396531556 1.55618341581948 2.879282778687667
171 2 6.0304709328320225 3.366058449888023 3.109296512566818
172 2 4.77158807394729 5.59630700030855 1.2984327316784328
173 2 4.589450501871039 0.47813714635331 1.2222471872442524
174 2 1.8094587196180825 2.786080381090935 0.22428941018532497
175 2 0.7191311738633425 1.3643144934637275 6.229365161539287
176 2 2.2988363561338128 5.5273549194511125 4.0796734572827695
177 2 1.2634623178397926 1.9286287310622576 0.04319262423522499
178 2 1.4466406760421928 2.70271341238632 1.4995126112506125
179 2 5.703507971302 4.0138957741100905 5.45892323165675
180 2 2.1488590753555976 0.4782932642722325 1.406206135041265
181 2 5.066702980017123 3.8203095546461903 3.8673530875481705
182 2 0.6587655785466425 5.162767539460767 4.036480833047546
183 2 2.9318424780582424 0.4587264851006125 5.189567782209129
184 2 3.7827892147984823 2.074182670804335 1.7994671728070428
185 2 2.8584670561646677 4.8505317016157665 3.392442378185925
186 2 5.290055682688912 5.24077445961571 1.3666562622475649
187 2 3.5177009884680777 3.65794691896679 1.0582713330693199
188 2 0.41241150248693753 2.3193398428189673 2.93793107689622
189 2 5.758201282231181 3.918559764954749 1.8077934618162423
190 2 3.08384929178245 2.1304371609227424 2.1188323956161703
191 2 1.042971777014915 5.682327973634847 7.035610134161384
192 2 3.4318881723670107 1.7946795566267526 0.07472844385757
193 2 1.3509403917427003 5.578873832695538 0.7513955437739924
194 2 5.35546909071744 4.489378915841717 6.104783062239132
195 2 4.47475587076931 0.0434528207667625 4.2425564860252445
196 2 0.498848790263695 3.4564507249441503 4.76430257106424
197 2 4.541314143536602 2.7076571464855324 4.578418168933849
198 2 2.3416126659185776 1.9809802732076025 6.601446201637913
199 2 2.518962621814538 0.9246864337779674 0.14628249003038252
200 2 3.6716852958319706 0.7763744108015924 3.3853129932217976
201 2 2.0994217343634727 2.25246933421383 6.190439760421278
202 2 5.960998458911511 1.7785473716714275 2.711143780008135
203 2 4.567698071834505 0.7547780986839799 1.8842912420882676
204 2 5.736657009419878 3.4403185399888248 6.031563758264479
205 2 2.9093614977334026 2.2711514451782224 6.2666773441617645
206 2 4.921357197500275 1.23582944619051 5.582620662749678
207 2 3.961596271271052 2.2899376347552303 2.6500496344031297
208 2 0.35714575918837244 3.1488984246668252 2.7663054446940847
209 2 5.394394491835449 4.6340481873765675 5.39002319010562
210 2 5.596567196840088 5.414429624763839 6.643337843215449
211 2 0.97334318517548 1.6795165717682552 2.906759532418028
212 2 0.3622456112065075 2.6159118494654097 0.5138881497865625
213 2 0.9371758672917675 2.46104287389429 4.821597847308797
214 2 1.7571071774727376 2.7985698146047353 5.154337171838953
215 2 4.007442900127961 2.0978605551742473 5.671399719310273
216 2 4.541470261455525 0.4489430955148025 2.7449693291080104
217 2 2.171235977067822 3.943174356838197 6.297484613495805
218 2 2.9639507300499703 2.702140980016938 3.936669443549759
219 2 4.880194106211043 2.027555452352815 6.256633758044418
220 2 5.697575490382945 0.25337938241121755 1.2175636496765776
221 2 4.124947653770295 4.96579876508688 6.538322523086915
222 2 1.3962145882302248 1.761738675734105 2.5996235465911623
223 2 1.6838878734980849 0.9679310973195 6.1648884610242956
224 2 4.282470633963096 4.746609206919689 1.06118553422254
225 2 3.94520388978419 3.01390846410517 5.093086908315026
226 2 1.611032844667585 1.4437785141952797 2.3605029341081996
227 2 4.626762684493517 0.74457839464771 5.2677828595893015
228 2 5.24681101914738 1.4937362482504801 0.9658495250672001
229 2 4.2183582085922575 2.15068045107636 2.2301444718079124
230 2 3.341860172455035 5.418488690655821 2.81574278568621
231 2 5.351462064131763 2.867469856155865 2.559449202121772
232 2 0.00936707513535 2.7576669198470403 3.7921042506275255
233 2 1.2473301328844675 3.80199171882595 6.603059420133445
234 2 2.5176616391568496 2.6061284598796006 2.8844867093184177
235 2 5.69809588344602 3.417473284519832 1.719274601787185
236 2 4.909908550112625 1.6417880746953175 4.84444310277779
237 2 2.2213498290419444 3.9062784886661803 6.798935369074876
238 2 1.88861050451179 2.969883210969025 0.045534393019062494
239 2 4.578626326159078 5.682588170166385 4.8147286588762075
240 2 4.722515008099317 1.0757045006823325 3.7536472032662824
241 2 1.3870036310137976 3.31927511351758 4.263632405079783
242 2 0.5322059856068024 1.7495094387518422 0.7167373657731976
243 2 5.459651781945055 1.75393277978798 6.0869335801756606
244 2 3.4544211919981573 2.35092770174762 0.6653745704476951
245 2 1.23666207509143 2.672634693340585 3.42023136775413
246 2 0.16897162758045253 1.5353156539901724 2.3041443653771774
247 2 5.721513571284395 4.818163253092502 5.274495930102969
248 2 4.709349063603521 4.556041267221625 3.6545643640568017
249 2 0.6528851369338949 4.98994500321356 2.2834847607731
250 2 0.3312301846472375 0.6421130005282424 5.447890898719561
251 2 1.2872963201286276 2.00163987781168 1.2822485074168
252 2 1.6586488099389476 1.8144024537172951 6.227335628593294
253 2 4.175946173951646 5.32216393468064 5.814403733043283
254 2 2.2389391145738804 5.024863377745893 3.2909657308863
255 2 5.368895231744775 1.2404609444518775 1.356872872661755
256 2 6.078971566310614 4.771692152559906 0.6631368802764724
257 2 4.852717352480683 2.05680154249763 2.939492256085445
258 2 1.8323039750870749 3.1886044153794475 4.052665057309176
259 2 5.7006458094550885 5.243532542850008 2.8270353151549377
260 2 5.073988482900173 3.052937943835795 6.43913560526482
261 2 5.67832094704917 1.1390363364585603 6.888495015230084
262 2 1.79410712425737 3.8900942644045475 4.097679057265165
263 2 1.431185002068865 3.4245506301776527 3.608145302830512
264 2 3.271867305471447 2.3033637757825653 5.389346679123623
265 2 4.804372836921014 3.6076249097674373 4.153829468770957
266 2 1.7049117532463152 4.9805258887719015 4.34715549170332
267 2 2.7018287441790925 2.50017643223753 3.2239391043622403
268 2 2.1761797111670353 3.797516338483504 5.467926031647948
269 2 4.27825545015219 0.21221629112198503 4.82008870742588
270 2 3.4922017283774025 5.561648822307755 1.944864994630197
271 2 3.17148348360428 5.605153682380824 3.525975238170971
272 2 5.325390371671705 0.5840891739953801 4.044234689687362
273 2 4.965850804393187 2.3511878982791576 5.838810167701499
274 2 1.606037071262065 0.4277110585413425 5.5476502489110375
275 2 0.09460745886703499 2.6409427557993173 0.46975881803780245
276 2 3.615118569875717 2.7306064805671397 5.787551450988613
277 2 1.7638722872927126 4.168920867600133 4.179224650249018
278 2 1.1485595295128326 4.9460758679963375 1.7800565115543452
279 2 4.634568580439642 3.988656710550952 1.0498930047538124
280 2 5.244677407588773 1.6481889093711402 3.7386078437434147
281 2 1.9369029807651499 3.981735482812055 4.592572860249489
282 2 0.7664349032968599 4.255930587746272 0.6208809635547825
283 2 6.0894835061847274 3.0893134189447373 0.23771555121266
284 2 1.5314647453234174 3.0482544062681196 3.718832907346564
285 2 3.7464137396895403 0.7759580963511324 1.19940193177526
286 2 4.595643179321633 1.4536659823937048 3.2253962049388503
287 2 4.1256762040586 4.382229984154575 6.052535598706403
288 2 5.499930205027059 4.314995200405284 6.737112673181565
289 2 1.2849025120384825 5.517571529865302 5.64647289158898
290 2 0.1498732021656 1.0927733931511927 4.700606460143859
291 2 1.561231228531308 2.3597223445135875 5.940442932920048
292 2 2.6118007442671174 5.10880277881989 3.5766615225144744
293 2 4.918807271491207 0.757380063999355 0.60740278322114
294 2 5.933781901712687 3.890510578855008 5.154024936001108
295 2 0.5296560595977349 4.0403317417143 0.34116969215196996
296 2 6.041086951318752 0.8721787737137001 0.065881761785295
297 2 3.9573290481538375 3.7184686322024114 6.2225480124130055
298 2 5.627218348255204 0.1687634703552225 3.396241247546373
299 2 2.8164713359745153 3.4759654648094624 3.0415413357544523
300 2 4.329670284783999 4.795109840398281 5.819139309917265
301 2 2.698862503719565 5.715633129671647 3.1451515946126847
302 2 1.2729334715877576 4.037885894317847 0.8594291436683623
303 2 3.0431025149436777 1.907865047845565 4.3410148535590345
304 2 4.657934228971709 2.386210351424105 0.07504067969541502
305 2 4.222313195871627 0.6071946259959099 1.3769080055901424
306 2 0.78163038073865 2.1949138614377346 3.864959279458025
307 2 2.1526579447160454 3.957745362604298 0.65423815889789
308 2 1.10198435036762 5.549887939082261 3.174657881289037
309 2 0.6131791462212725 2.182060152779782 6.85940504300419
310 2 2.2943089364850597 5.499565929882907 2.0863598684802898
311 2 3.113563735684032 4.536214291518467 3.0589224640611574
312 2 0.65486263057358 0.26706571997009 0.9829704568423676
313 2 4.864113960562026 3.7341324634009703 3.6980692241298727
314 2 5.6882604545539035 5.436702447863447 2.6316797592765826
315 2 0.5368895231744774 3.4300147573399404 1.3453721859677974
316 2 1.9080211657644877 1.6688485139752174 4.99473261939385
317 2 5.476044163431917 5.396944417844518 5.0984989961710045
318 2 5.033397823980323 3.31781801294097 2.054824048857945
319 2 1.643089057353005 3.8783854204853596 1.30410501606595
320 2 2.1948097828251196 4.549640432545803 0.144357035697005
321 2 3.50786555957596 1.6211284700912398 4.744371516748468
322 2 2.443505627668663 3.1772078072981054 4.7727849779923615
323 2 2.8661688734981774 0.63966715313179 4.614117133060795
324 2 2.5951481662487175 5.605205721687132 4.91146972930185
325 2 4.253432701043513 3.7022323686344727 6.617005954223854
326 2 6.078711369779075 4.858910029931275 3.0195807484926873
327 2 1.4502834274837173 5.357082309212973 4.679634619701938
328 2 2.9865878282937324 0.5459443624719825 2.5391538726618474
329 2 5.51137885241471 4.695506608125725 2.4208685294248995
330 2 0.9964486371760098 1.90755281200772 3.5862887941813626
331 2 5.85275670179191 2.688506681764373 6.717858129847789
332 2 3.202186674325705 5.640124096219465 2.735914489810505
333 2 5.28760983529246 4.158096691888173 4.376661778379673
334 2 1.0802319203310848 4.084773309300905 0.12666367155245498
335 2 1.7821901231129527 5.085020815837362 3.2431936476960144
336 2 0.5111821058585724 5.53781482001892 0.444311597253435
337 2 3.3096478418506927 4.30989534838715 5.685086056869145
338 2 2.8017442122894924 1.6560468446235725 3.0155216826007023
339 2 4.235479140367425 0.11172839064220248 6.999494855583979
340 2 0.2553568760509025 2.751526281702755 5.982178456578662
341 2 2.1354849736345702 3.9363051684056067 1.0836144752410726
342 2 3.2249798904883904 5.694297014085572 0.5183635301290075
343 2 2.7006838794403274 0.09320239759673249 6.730139406136359
344 2 1.2506086091818402 3.5160877699725446 4.431563246534085
345 2 1.87154161204293 3.7357977212028097 0.48760830010127504
346 2 6.092918100401023 2.395161112108995 6.114774609050172
347 2 3.786119730402162 3.3870302903299447 0.4318742030459425
348 2 4.886542901580557 4.98890421708741 5.216159867732261
349 2 0.4309374955324075 1.5295392909900403 1.8939185137551549
350 2 4.764822964127316 5.28594457749062 2.909257419120787
351 2 5.455436598134147 2.19793214120357 3.1574849102075624
352 2 0.14716715823761004 1.4733368401779399 1.16234994568432
353 2 4.9878634309612595 2.6681072736918328 5.583505330956905
354 2 2.18585902214023 5.017161560412382 1.0542122671773348
355 2 2.0459253274793623 4.575972321537397 2.388864356045788
356 2 2.3838685826402672 1.3031162692461074 6.580838636340143
357 2 5.950278361812165 4.415379022272453 0.9371758672917675
358 2 4.058753656147154 4.340338342577038 3.043154554249985
359 2 0.3871724389278 5.205283652713995 4.050687563669492
360 2 5.495402785378308 3.2518321725430597 1.7949917924645975
361 2 2.0771489112638624 2.9091013012018645 4.758942522514568
362 2 4.244586018971238 4.35423283736114 6.599832983142381
363 2 3.346491670716402 3.518949931819458 2.959267192482295
364 2 4.224030492979774 1.3957462344734575 4.097002546283167
365 2 4.869213812580161 5.1151515741894045 1.8602490825742024
366 2 2.543993528148445 1.8050353785819448 2.5364478287338574
367 2 4.29719775764812 0.7374490096835825 1.8254347866544847
368 2 0.8985106627052949 2.5410272876889173 0.4726730191910225
369 2 3.6699679987238225 2.3570163005855975 6.587603746160118
370 2 4.598089026718085 3.5165561237293126 2.636831650601025
371 2 4.059430167129152 2.0318226754700297 4.724908816189462
372 2 0.8273729309829425 2.1992331238612572 0.25514871882567247
373 2 0.6937880316915901 1.54764896958505 5.32403734970771
374 2 5.1921177082181975 3.63484146696626 5.855722942251438
375 2 3.81448115233975 0.58200760174308 2.20729921633892
376 2 0.7741887599366774 4.387902268542094 0.1296299120119825
377 2 5.053380917602403 3.6583632334172496 3.2058814650735377
378 2 1.7171409902285775 1.808990365861315 2.224888501870855
379 2 4.093099598310106 0.39091926898194 2.4752496045162378
380 2 5.459079349575673 0.6640215484837 4.973136307276238
381 2 0.07847527391171 4.050219209912725 0.10439084845284498
382 2 3.4128938255647725 3.9702868354244045 2.2571008324751975
383 2 5.451273453629548 3.0493472317005774 0.69149830221406
384 2 5.169688767199665 2.0977564765616328 5.987434426515721
385 2 2.77452765509067 4.442803736696506 3.9684654597036424
386 2 5.189151467758669 5.09693781698178 6.988358444034176
387 2 3.4491652220611 5.0894441568735 5.948144750253557
388 2 5.9861854831643395 5.56050395756899 4.38108511941581
389 2 5.587616436155197 2.9299170237248653 4.958981615960598
390 2 5.899696156081275 4.10132180870669 0.7702337726573074
391 2 2.9874724965009603 0.6883239045293025 0.76539411717071
392 2 3.487778387341265 2.4303917224791727 3.8752110228006034
393 2 2.0872965759938245 2.53348158827433 2.3192878035126596
394 2 3.99412083771324 0.2773695026189751 1.0657129538712924
395 2 4.612399835952647 3.8169790390425096 1.7754770525992851
396 2 2.145372441832995 1.79660501096013 2.2866591584578573
397 2 2.466611079669193 4.967880337339179 0.5761791994366401
398 2 2.6331888991595 3.9305808447117827 4.691551620846354
399 2 5.252171067697053 4.604750057925446 1.9664613067478096
400 2 3.7726935893748275 2.4098882357940172 0.33383214996261246
401 2 4.308334169197925 0.9531519343281701 0.5858064711035276
402 2 2.511104686562105 5.062279638980985 6.32298387358648
403 2 1.1484554509002176 0.15091398829174998 4.769142226550837
404 2 5.834594983890593 2.371275070513853 6.257778622783182
405 2 4.241047346142328 4.360789789955884 5.0020181222769
406 2 4.03179729547987 1.5483254805670474 4.2471359449803066
407 2 3.8735978043050703 2.3755422936310673 0.059272769884242515
408 2 1.1028690185748475 4.453159558651698 5.964224895902575
409 2 0.9330127227871676 2.4476167328669547 3.3564311782211353
410 2 2.3585254404685148 2.873246219155997 2.1881487516177605
411 2 2.7221240736390175 0.6066221936265275 2.7576148805407326
412 2 0.94003802913868 4.42500629393934 5.746856713456148
413 2 4.225019239799617 2.4273214034070296 5.814091497205438
414 2 5.856243335314512 2.276511493727895 4.606571433646208
415 2 2.886620320877025 5.66374994128307 0.738229599278195
416 2 2.099786009507625 4.3883706222988605 6.726704811920065
417 2 5.1477281799379 2.44147609472267 0.717622033980425
418 2 5.5954223321013234 2.160203644130632 2.7253505106300824
419 2 0.9221365077689001 0.9095429956424849 5.61712272283155
420 2 5.678737261499631 3.6501930623269727 4.36859568590201
421 2 0.2946985916193725 0.051310756019195 2.5334815882743302
422 2 2.3127828902242227 4.092266969409184 5.631537610678728
423 2 2.54493023566198 0.15601384030988497 5.2656492480306945
424 2 5.477709421233757 2.5238543166074425 2.61632816391587
425 2 1.2119434045953674 5.291044429508754 3.212386378361975
426 2 0.9012687459395926 1.3977757674194502 4.234022039790815
427 2 5.238380651525565 3.6319272658130406 1.5513437603328826
428 2 4.620778164268155 0.4877644180201974 4.015092678155163
429 2 2.1546874776620375 3.2657787066334705 5.944033645055265
430 2 2.1609321944189372 0.6937359923852826 2.1799785805274827
431 2 1.4556434760333898 4.723139479775008 1.0942304937278022
432 2 5.9807733953083595 1.6311720562085876 5.480415465161746
433 2 4.116257089616942 2.2689657943133072 5.484318413134809
434 2 3.955976026189843 0.9075655020028001 5.724583890356537
435 2 5.609681102029579 3.5922212751004174 5.753205508825662
436 2 2.74226328518002 4.022950613407596 4.0185272723714585
437 2 1.4748459800608573 3.7245051917340826 1.8345937045646052
438 2 0.1920770795809825 4.095805642238094 6.220362361548091
439 2 0.4641906122629 3.750628923500448 3.3804733377352
440 2 3.06011936810623 5.35213857511376 6.407547746336167
441 2 0.2562935835644375 0.8378848708570574 4.213206317267815
442 2 2.1736297851579676 5.458819153044135 6.400470400678347
443 2 4.12650883295952 2.8015360550642625 4.614949761961715
444 2 2.424927595316885 4.469708058057482 6.867002781725085
445 2 5.336891058365663 1.54369398230568 1.692630476957745
446 2 4.310988173819607 2.2094848672038356 0.15632607614772998
447 2 4.384675831551028 1.3311134160395424 3.63317620916442
448 2 4.083316208724296 1.5211609626745326 3.8862433557377924
449 2 4.064165744003135 1.8506218109073147 5.32861680866277
450 2 1.488011924556655 3.5441889953785943 5.4907712871169405
451 2 0.38097976147720747 2.403279243892965 5.487909125270027
452 2 5.166358251595986 0.289026307231855 5.440605395836509
453 2 0.6942043461420501 0.846263199172565 3.8348805604122904
454 2 0.8371563205687526 4.128850601743357 6.6978229969194025
455 2 1.5666433163872873 3.39587697240222 3.13797017034225
456 2 0.772783698666375 0.06338387508253501 6.735083140235572
457 2 0.6226502999692375 1.9705724119461023 4.1972822895377195
458 2 1.9950829252169355 1.3750345905630725 2.7793673105772676
459 2 0.9728748314187124 2.245079752718165 6.062527145517442
460 2 4.922658180157963 4.580447701879843 4.899708846076356
461 2 3.276342685813893 4.3659416812803284 6.769949475461598
462 2 2.972797412122245 0.5966826861217949 2.1062388834897545
463 2 4.729904589594983 2.054615891632715 0.3309179488093925
464 2 2.9833093519963607 3.6742872611473447 0.7073702906378476
465 2 3.2859699574807806 1.5981791360096325 5.313577449139902
466 2 1.192220507504825 2.8508172781374648 1.4187996471676803
467 2 1.9958114755052396 4.327536673225393 0.7955248755227525
468 2 3.9837650157580473 0.9803164522206849 4.438172238435137
469 2 0.25046518125799755 0.34788276266563756 4.938061814824982
470 2 1.785676756635555 4.498433755139222 0.8425684084247326
471 2 1.148507490206525 3.109712827017278 3.536903492495545
472 2 4.566865442933585 3.3574199250409777 5.834542944584285
473 2 3.5870173444696674 5.17499677644303 2.6913168043049773
474 2 0.8888833910384075 2.466194765218732 6.187109244817598
475 2 1.9124965461069323 5.220270972930555 3.8824444863773455
476 2 0.31822035807036253 2.247525600114618 1.530267841278345
477 2 5.258988216823334 3.0994610836747 5.190140214578512
478 2 3.7640030252214745 3.8641266505571052 6.3711202319209175
479 2 5.122228919847225 4.919639900392127 6.778119646551875
480 2 2.900775012192665 4.808223745587769 4.271958694088983
481 2 0.4347884041991625 4.5396488857347626 5.8388101677015
482 2 2.817720279325895 3.6652324218498404 1.6164449325235648
483 2 4.889092827589625 5.463606769224425 1.1052107873586852
484 2 2.7104152297198296 1.9812404697391401 3.33759294933782
485 2 3.609706482019737 2.64880069105175 5.49826494722522
486 2 1.2494117051367675 4.562129866059602 4.445665898543417
487 2 1.6013014943880826 5.43831566635898 4.880350224129964
488 2 4.016081424975005 4.697952455522177 0.28970281821385246
489 2 3.5810848635506125 2.83197904925415 2.5810975535456926
490 2 2.876993049210137 1.5187671545843877 1.659741635371405